ITEM: TIMESTEP
0
ITEM: NUMBER OF ATOMS
308
ITEM: BOX BOUNDS pp pp pp
-3.0000000000000000e+01 4.0000000000000000e+01
-3.0000000000000000e+01 6.1964045980000002e+01
-3.0000000000000000e+01 6.1964045980000002e+01
ITEM: ATOMS id mol type x y z ix iy iz
270 1 2 4.55898 -6.20379 -6.28822 0 0 0
267 1 1 5.64899 -6.13718 -6.14734 0 0 0
268 1 2 6.22751 -5.99498 -7.0372 0 0 0
269 1 2 5.98021 -7.12879 -5.87733 0 0 0
282 1 1 1.29901 -3.25285 -5.37205 0 0 0
285 1 2 1.21201 -3.79947 -6.24539 0 0 0
274 1 1 4.16603 -3.51529 -6.21801 0 0 0
275 1 2 4.0897 -3.77478 -7.31578 0 0 0
276 1 2 3.59364 -4.31975 -5.72946 0 0 0
277 1 1 3.57498 -2.16797 -5.80484 0 0 0
280 1 1 2.09764 -1.9258 -5.50631 0 0 0
271 1 1 5.64362 -3.66789 -5.6708 0 0 0
273 1 2 6.41951 -3.32184 -6.38602 0 0 0
279 1 2 3.8835 -1.37266 -6.41632 0 0 0
281 1 2 1.69124 -1.52071 -6.40382 0 0 0
259 1 1 7.39805 -5.695 -3.15752 0 0 0
260 1 2 7.54705 -6.85601 -3.31626 0 0 0
261 1 2 6.48658 -5.52199 -2.58408 0 0 0
263 1 2 8.03526 -5.53054 -5.18729 0 0 0
266 1 2 5.16756 -5.25363 -4.31428 0 0 0
284 1 2 0.26322 -3.1733 -5.16861 0 0 0
290 1 2 0.773699 -1.95382 -3.05746 0 0 0
278 1 2 4.07844 -1.90081 -4.86215 0 0 0
283 1 2 1.73489 -3.93668 -4.58417 0 0 0
256 1 1 8.45929 -4.98053 -2.23435 0 0 0
258 1 2 8.31515 -3.89448 -2.25914 0 0 0
262 1 1 7.32114 -5.02782 -4.52522 0 0 0
264 1 2 7.6247 -3.97973 -4.47922 0 0 0
265 1 1 5.92149 -5.03911 -5.10792 0 0 0
272 1 2 5.83598 -3.01408 -4.74812 0 0 0
257 1 2 9.3829 -5.15281 -2.80675 0 0 0
288 1 2 1.08235 -0.122092 -4.94805 0 0 0
289 1 1 1.3091 -0.97974 -3.05264 0 0 0
292 1 1 0.376703 0.125234 -2.53588 0 0 0
293 1 2 -0.619668 -0.394468 -2.49776 0 0 0
294 1 2 0.228722 0.961751 -3.24183 0 0 0
286 1 1 1.83539 -0.721489 -4.48356 0 0 0
287 1 2 2.6999 -0.0683869 -4.36383 0 0 0
291 1 2 2.22797 -1.17717 -2.48687 0 0 0
306 1 2 1.21772 2.50284 -2.06405 0 0 0
254 1 2 7.42034 -5.90957 1.01712 0 0 0
244 1 1 10.3435 -5.35172 1.27758 0 0 0
245 1 2 10.7869 -6.34647 1.33514 0 0 0
248 1 2 10.8049 -5.54544 -0.786859 0 0 0
250 1 1 8.62998 -5.46779 -0.713525 0 0 0
251 1 2 8.58415 -6.59166 -0.816077 0 0 0
161 1 2 27.9818 -5.92948 1.39363 0 0 0
252 1 1 7.48545 -5.11708 0.270076 0 0 0
253 1 2 6.48369 -5.15581 -0.156891 0 0 0
255 1 2 7.47944 -4.15581 0.814587 0 0 0
243 1 2 11.1539 -3.26518 1.48397 0 0 0
247 1 1 10.0394 -5.08763 -0.204176 0 0 0
249 1 2 10.1677 -4.0835 -0.499188 0 0 0
242 1 2 12.273 -4.39571 1.81165 0 0 0
164 1 2 27.9892 -3.56683 0.852787 0 0 0
145 1 1 32.7443 -2.78009 1.36911 0 0 0
146 1 2 32.0325 -2.04235 0.942678 0 0 0
151 1 1 32.2051 -4.2716 1.43709 0 0 0
153 1 2 32.4508 -4.85342 0.520421 0 0 0
154 1 1 30.6674 -4.30392 1.32113 0 0 0
155 1 2 30.3401 -3.38644 1.67182 0 0 0
156 1 2 30.3999 -4.53768 0.267278 0 0 0
147 1 1 33.9561 -2.71417 0.415147 0 0 0
148 1 2 33.4596 -3.06923 -0.548509 0 0 0
150 1 2 34.639 -3.49061 0.715792 0 0 0
1 1 1 -7.04702 -0.236466 1.53011 1 0 0
2 1 2 -7.13837 -1.30469 1.70724 1 0 0
5 1 2 -8.70855 1.21 1.48611 1 0 0
301 1 1 -7.10072 7.10543e-15 -1.08024e-14 1 0 0
302 1 2 -7.25142 1.05284 -0.187932 1 0 0
303 1 2 -7.85481 -0.599852 -0.537691 1 0 0
304 1 2 -6.20689 -0.249419 -0.510419 1 0 0
295 1 1 0.732223 0.647278 -1.15168 0 0 0
297 1 1 0 0 0 0 0 0
298 1 2 0.621883 -0.210972 0.84542 0 0 0
299 1 2 -0.632511 -0.923505 -0.214996 0 0 0
300 1 2 -0.581162 0.769009 0.502624 0 0 0
296 1 2 1.79345 0.511021 -1.01586 0 0 0
149 1 2 34.352 -1.69041 0.396529 0 0 0
305 1 1 0.466455 2.14521 -1.21172 0 0 0
307 1 2 -0.461175 2.63061 -1.58242 0 0 0
308 1 2 0.678419 2.60587 -0.242033 0 0 0
237 1 1 10.7277 -5.26547 4.3504 0 0 0
238 1 2 11.5944 -5.96397 4.22491 0 0 0
239 1 2 9.74373 -5.74784 4.10225 0 0 0
246 1 2 9.43992 -5.44341 1.8414 0 0 0
171 1 2 25.8642 -5.96828 2.94402 0 0 0
172 1 1 25.9604 -6.28206 5.09176 0 0 0
173 1 2 25.8187 -7.30567 4.84 0 0 0
180 1 2 22.6581 -5.36527 4.80087 0 0 0
160 1 1 28.5012 -5.33113 2.12154 0 0 0
166 1 1 27.9514 -5.80886 3.53471 0 0 0
167 1 2 28.5209 -5.5122 4.37876 0 0 0
168 1 2 27.9918 -6.87893 3.56507 0 0 0
169 1 1 26.4284 -5.58486 3.82483 0 0 0
157 1 1 30.0228 -5.42389 2.159 0 0 0
159 1 2 30.4255 -6.42373 1.91911 0 0 0
232 1 1 11.9161 -2.96742 4.11357 0 0 0
233 1 2 11.437 -2.37034 4.85908 0 0 0
235 1 1 10.9373 -3.98901 3.46392 0 0 0
236 1 2 10.0049 -3.50507 3.34222 0 0 0
241 1 1 11.2425 -4.20657 1.95836 0 0 0
229 1 1 13.2699 -3.55015 4.70272 0 0 0
230 1 2 13.4397 -4.62745 4.48547 0 0 0
231 1 2 13.9655 -3.06004 4.0274 0 0 0
234 1 2 12.2401 -2.28984 3.36054 0 0 0
177 1 1 23.6786 -5.06568 4.71587 0 0 0
178 1 2 23.5705 -4.00467 4.93348 0 0 0
179 1 2 23.9117 -5.1224 3.66063 0 0 0
162 1 1 27.9354 -3.8368 1.93078 0 0 0
163 1 2 28.3739 -3.05369 2.5587 0 0 0
165 1 2 26.8803 -3.80615 2.11083 0 0 0
170 1 2 26.301 -4.52937 4.05988 0 0 0
152 1 2 32.6036 -4.88822 2.30342 0 0 0
158 1 2 30.3799 -5.16509 3.15057 0 0 0
142 1 1 33.3097 -2.40099 2.75933 0 0 0
143 1 2 34.3919 -2.49309 2.80736 0 0 0
144 1 2 33.004 -3.11045 3.54873 0 0 0
14 1 2 -10.6014 1.64301 2.70841 1 0 0
15 1 2 -10.6236 1.39527 4.44543 1 0 0
3 1 2 -6.08226 -0.10347 1.94332 1 0 0
4 1 1 -8.13481 0.615629 2.20231 1 0 0
6 1 2 -8.8682 -0.113185 2.55587 1 0 0
7 1 1 -7.77168 1.27194 3.52194 1 0 0
8 1 2 -7.78915 0.438263 4.32848 1 0 0
9 1 2 -6.82537 1.74339 3.55483 1 0 0
139 1 1 32.7379 -1.10363 3.33553 0 0 0
140 1 2 32.1198 -1.45315 4.23459 0 0 0
141 1 2 32.1906 -0.38999 2.64952 0 0 0
136 1 1 33.7946 -0.22236 3.93911 0 0 0
137 1 2 34.0439 0.622201 3.23789 0 0 0
138 1 2 34.6185 -0.865161 4.03058 0 0 0
12 1 1 -10.2644 2.08858 3.67892 1 0 0
13 1 2 -10.91 2.94351 3.82317 1 0 0
20 1 2 -9.6433 4.637 4.87692 1 0 0
10 1 1 -8.77819 2.41002 3.93798 1 0 0
11 1 2 -8.4918 3.28963 3.30048 1 0 0
128 1 2 34.8755 2.02507 5.02013 0 0 0
129 1 2 33.2146 2.51565 4.86921 0 0 0
41 1 2 -15.2216 8.1079 5.30758 1 0 0
35 1 2 -12.4217 6.42629 5.29984 1 0 0
225 1 2 13.4529 -5.84231 8.34106 0 0 0
208 1 2 17.7863 -7.3104 8.73456 0 0 0
215 1 2 16.6727 -5.86779 7.73924 0 0 0
210 1 2 19.2857 -6.35928 8.30244 0 0 0
175 1 1 24.6097 -5.78324 5.79148 0 0 0
176 1 2 24.012 -6.6726 6.06692 0 0 0
184 1 1 24.572 -5.54507 8.45956 0 0 0
185 1 2 25.4908 -5.94631 8.82189 0 0 0
186 1 2 23.9845 -6.48078 8.28288 0 0 0
174 1 2 26.8241 -6.26756 5.70835 0 0 0
240 1 2 10.7319 -5.05334 5.3883 0 0 0
218 1 2 15.386 -3.33217 8.42824 0 0 0
220 1 1 14.2475 -4.43729 6.95547 0 0 0
221 1 2 14.5647 -5.12302 6.15802 0 0 0
222 1 1 13.19 -4.8891 7.98681 0 0 0
223 1 2 12.1427 -5.00193 7.55676 0 0 0
224 1 2 13.0663 -4.18392 8.83567 0 0 0
226 1 1 13.614 -3.21364 6.18463 0 0 0
227 1 2 12.6785 -2.77562 6.62718 0 0 0
228 1 2 14.3542 -2.43856 6.06604 0 0 0
214 1 1 16.2196 -5.17702 8.4933 0 0 0
217 1 1 15.594 -4.05161 7.69515 0 0 0
219 1 2 16.2887 -3.62449 7.01145 0 0 0
181 1 1 24.8891 -4.85592 7.00144 0 0 0
182 1 2 25.8596 -4.50203 6.85668 0 0 0
183 1 2 24.2527 -3.98415 6.95642 0 0 0
189 1 2 23.0143 -4.3224 8.83696 0 0 0
131 1 2 32.4505 0.254434 5.66721 0 0 0
130 1 1 33.5739 0.428297 5.42474 0 0 0
132 1 1 34.4403 -0.214291 6.48005 0 0 0
133 1 2 34.122 -1.2554 6.49213 0 0 0
134 1 2 35.5021 -0.192989 6.16932 0 0 0
135 1 2 34.3368 0.203088 7.5235 0 0 0
22 1 1 -9.70613 4.61629 6.94947 1 0 0
23 1 2 -10.5212 3.81622 6.96495 1 0 0
24 1 2 -9.15686 4.28553 7.77195 1 0 0
33 1 2 -12.2004 4.96247 7.25727 1 0 0
16 1 1 -8.46544 2.92061 5.39229 1 0 0
17 1 2 -8.7947 2.26006 6.12642 1 0 0
18 1 2 -7.38569 2.92962 5.52882 1 0 0
19 1 1 -8.90696 4.39874 5.64425 1 0 0
21 1 2 -8.1517 5.15715 5.39896 1 0 0
123 1 2 32.441 4.24096 6.49549 0 0 0
115 1 1 33.9937 5.13072 7.89623 0 0 0
116 1 2 33.247 5.06054 8.75291 0 0 0
117 1 1 35.3421 4.63902 8.53978 0 0 0
120 1 2 36.0176 4.24852 7.71076 0 0 0
121 1 1 33.523 4.15057 6.71132 0 0 0
122 1 2 34.1096 4.5034 5.83583 0 0 0
124 1 1 33.7972 2.67708 6.84718 0 0 0
125 1 2 34.6609 2.35379 7.41224 0 0 0
126 1 2 33.0127 2.17794 7.41975 0 0 0
127 1 1 33.8957 1.9217 5.47421 0 0 0
46 1 1 -16.1859 8.05488 7.10029 1 0 0
47 1 2 -16.6708 7.11562 6.83969 1 0 0
48 1 2 -16.1346 7.94194 8.16314 1 0 0
53 1 2 -18.4994 8.138 8.13704 1 0 0
54 1 2 -19.0962 8.55575 6.59976 1 0 0
34 1 1 -12.5956 6.7796 6.29178 1 0 0
37 1 1 -14.0792 6.75154 6.62354 1 0 0
38 1 2 -14.6324 6.02548 6.01875 1 0 0
39 1 2 -14.1809 6.4796 7.65785 1 0 0
40 1 1 -14.865 8.13938 6.36746 1 0 0
25 1 1 -10.2734 5.9856 6.99821 1 0 0
26 1 2 -10.1273 6.64948 6.16196 1 0 0
27 1 1 -9.48392 6.78645 8.05265 1 0 0
28 1 2 -10.0485 7.4476 8.6601 1 0 0
31 1 1 -11.749 6.0308 7.33274 1 0 0
32 1 2 -11.8999 6.35024 8.38947 1 0 0
36 1 2 -12.1237 7.79012 6.26721 1 0 0
29 1 2 -8.95931 6.19218 8.80132 1 0 0
30 1 2 -8.77447 7.38633 7.55845 1 0 0
106 1 1 35.183 8.84964 7.05011 0 0 0
108 1 2 35.523 8.90015 6.0411 0 0 0
109 1 1 35.3259 7.43717 7.67146 0 0 0
110 1 2 35.2343 7.38424 8.78164 0 0 0
111 1 2 36.3322 6.9785 7.44988 0 0 0
112 1 1 34.1883 6.57765 7.2195 0 0 0
113 1 2 34.3835 6.52066 6.11808 0 0 0
114 1 2 33.1834 7.08905 7.33841 0 0 0
69 1 2 -23.4246 10.1734 7.84735 1 0 0
71 1 2 -24.2431 12.3518 8.68008 1 0 0
78 1 2 -25.7702 10.6009 8.08031 1 0 0
61 1 1 -20.9533 9.96059 8.07666 1 0 0
62 1 2 -21.0171 9.015 8.53697 1 0 0
63 1 2 -21.253 9.87009 7.07117 1 0 0
65 1 2 -21.548 11.9635 8.56877 1 0 0
49 1 1 -17.1851 9.26889 6.93662 1 0 0
50 1 2 -16.8017 10.1269 7.47021 1 0 0
51 1 2 -17.2663 9.61217 5.9002 1 0 0
52 1 1 -18.5969 8.93374 7.47661 1 0 0
55 1 1 -19.3674 10.2122 8.05352 1 0 0
56 1 2 -19.1227 11.0988 7.4138 1 0 0
42 1 1 -14.0755 9.44047 6.48866 1 0 0
43 1 2 -13.5569 9.77052 5.61653 1 0 0
44 1 2 -14.6679 10.3013 6.7212 1 0 0
45 1 2 -13.3653 9.48916 7.31118 1 0 0
100 1 1 35.7972 9.96051 7.88993 0 0 0
102 1 1 34.9488 11.2031 7.60228 0 0 0
103 1 2 34.2043 11.3858 8.39467 0 0 0
104 1 2 35.6645 12.0439 7.59867 0 0 0
105 1 2 34.4605 11.2954 6.57011 0 0 0
107 1 2 34.0612 9.02558 6.91948 0 0 0
91 1 1 39.5446 10.3143 8.71021 0 0 0
92 1 2 39.6573 9.22171 8.57622 0 0 0
93 1 2 39.7533 10.8135 7.76137 0 0 0
97 1 1 37.2949 10.325 7.65797 0 0 0
98 1 2 37.3909 11.0782 6.92317 0 0 0
99 1 2 37.8427 9.55953 7.1533 0 0 0
216 1 2 15.4911 -5.78384 9.01922 0 0 0
205 1 1 18.2023 -5.84673 10.1656 0 0 0
206 1 2 17.6614 -6.59034 10.7647 0 0 0
207 1 1 18.7016 -6.78486 9.05798 0 0 0
199 1 1 20.6589 -5.73948 11.0779 0 0 0
200 1 2 20.4839 -6.53926 11.7899 0 0 0
201 1 2 20.8971 -6.25155 10.2104 0 0 0
209 1 2 19.3134 -7.56476 9.56664 0 0 0
190 1 1 23.1638 -5.47962 10.596 0 0 0
191 1 2 22.9542 -6.51664 10.2577 0 0 0
192 1 1 24.1295 -5.75233 11.7507 0 0 0
193 1 2 24.3986 -6.72589 11.7823 0 0 0
204 1 2 18.8499 -4.69118 11.7539 0 0 0
211 1 1 17.1672 -4.82099 9.65285 0 0 0
212 1 2 16.6501 -4.48276 10.5718 0 0 0
213 1 2 17.7394 -3.97432 9.30726 0 0 0
196 1 1 21.9298 -4.88097 11.2402 0 0 0
197 1 2 21.7563 -3.92954 10.7015 0 0 0
198 1 2 22.0844 -4.47055 12.2056 0 0 0
202 1 1 19.301 -5.08905 10.854 0 0 0
203 1 2 19.5951 -4.3376 10.1421 0 0 0
187 1 1 23.8132 -4.62649 9.44315 0 0 0
188 1 2 24.2093 -3.69867 9.82235 0 0 0
194 1 2 24.9929 -5.08864 11.532 0 0 0
118 1 2 35.2136 3.84566 9.18928 0 0 0
119 1 2 35.9352 5.43016 8.97439 0 0 0
79 1 1 -26.9884 11.2831 9.67536 1 0 0
80 1 2 -27.2123 12.1078 9.03392 1 0 0
81 1 2 -26.9213 11.6805 10.7109 1 0 0
82 1 1 -28.0559 10.2606 9.79297 1 0 0
83 1 2 -27.9689 9.56995 8.96955 1 0 0
84 1 2 -27.8552 9.59701 10.6281 1 0 0
85 1 1 -29.5316 10.9146 9.79987 1 0 0
86 1 2 -29.9471 10.4802 10.7214 1 0 0
67 1 1 -23.1903 10.5113 8.91668 1 0 0
68 1 2 -23.3132 9.58397 9.46802 1 0 0
70 1 1 -24.3031 11.513 9.35912 1 0 0
72 1 1 -24.1088 11.8982 10.8239 1 0 0
74 1 2 -24.2583 11.0427 11.5461 1 0 0
75 1 2 -23.2315 12.391 11.0806 1 0 0
76 1 1 -25.6447 10.7017 9.17152 1 0 0
77 1 2 -25.5298 9.77856 9.6327 1 0 0
64 1 1 -21.7157 10.9734 8.93035 1 0 0
66 1 2 -21.4001 10.9189 10.0051 1 0 0
57 1 1 -18.748 10.7252 9.40502 1 0 0
58 1 2 -17.6927 10.6824 9.38681 1 0 0
59 1 2 -19.1245 10.1941 10.2568 1 0 0
60 1 2 -18.9413 11.7327 9.70317 1 0 0
101 1 2 35.5794 9.70943 8.98748 0 0 0
94 1 1 38.0234 10.6125 8.97717 0 0 0
95 1 2 37.697 10.0136 9.83489 0 0 0
96 1 2 37.9229 11.6802 9.25272 0 0 0
87 1 1 -29.6035 12.4737 10.1316 1 0 0
88 1 2 -29.0454 12.8163 11.0088 1 0 0
90 1 2 -29.2508 13.1153 9.297 1 0 0
73 1 2 -24.8533 12.5462 11.18 1 0 0
89 1 2 39.4092 12.8773 10.3572 0 0 0
195 1 2 23.7192 -5.36034 12.7203 0 0 0
ITEM: TIMESTEP
1000
ITEM: NUMBER OF ATOMS
308
ITEM: BOX BOUNDS pp pp pp
-3.0154558003546377e+01 4.0154558003546377e+01
-3.0000000000000000e+01 6.1964045980000002e+01
-3.0000000000000000e+01 6.1964045980000002e+01
ITEM: ATOMS id mol type x y z ix iy iz
270 1 2 4.57771 -6.2444 -6.39059 0 0 0
267 1 1 5.62805 -6.17668 -6.11202 0 0 0
268 1 2 6.19583 -5.99643 -7.02466 0 0 0
269 1 2 5.9163 -7.15358 -5.72257 0 0 0
282 1 1 1.30474 -3.21226 -5.30919 0 0 0
285 1 2 1.4058 -3.86361 -6.17917 0 0 0
274 1 1 4.1589 -3.41687 -6.18359 0 0 0
275 1 2 4.11266 -3.57717 -7.26154 0 0 0
276 1 2 3.54948 -4.19904 -5.74358 0 0 0
277 1 1 3.59336 -2.01625 -5.82577 0 0 0
280 1 1 2.09275 -1.89913 -5.47209 0 0 0
271 1 1 5.57962 -3.66961 -5.67609 0 0 0
273 1 2 6.27796 -3.46383 -6.48759 0 0 0
279 1 2 3.83797 -1.31098 -6.62203 0 0 0
281 1 2 1.68842 -1.52544 -6.41527 0 0 0
259 1 1 7.43056 -5.6784 -3.03948 0 0 0
260 1 2 7.67837 -6.73856 -3.10163 0 0 0
261 1 2 6.47264 -5.63252 -2.52793 0 0 0
263 1 2 7.975 -5.57187 -5.16588 0 0 0
266 1 2 5.14579 -5.22304 -4.24999 0 0 0
284 1 2 0.242749 -2.99491 -5.21258 0 0 0
290 1 2 0.810424 -1.99867 -2.90511 0 0 0
278 1 2 4.12866 -1.64261 -4.9551 0 0 0
283 1 2 1.6105 -3.77021 -4.42437 0 0 0
256 1 1 8.46149 -4.93487 -2.16425 0 0 0
258 1 2 8.21083 -3.8748 -2.10518 0 0 0
262 1 1 7.27902 -5.09949 -4.47306 0 0 0
264 1 2 7.62526 -4.06788 -4.41277 0 0 0
265 1 1 5.85425 -5.07149 -5.06389 0 0 0
272 1 2 5.8067 -2.93386 -4.90546 0 0 0
257 1 2 9.4098 -4.98198 -2.69913 0 0 0
288 1 2 1.06906 -0.087923 -4.95024 0 0 0
289 1 1 1.15484 -0.965762 -2.94129 0 0 0
292 1 1 -0.141312 -0.019165 -2.45404 0 0 0
293 1 2 -0.944306 -0.561737 -2.93381 0 0 0
294 1 2 -0.0473625 0.843972 -3.12091 0 0 0
286 1 1 1.7756 -0.731 -4.4263 0 0 0
287 1 2 2.64791 -0.0830443 -4.33585 0 0 0
291 1 2 1.97386 -0.939578 -2.22127 0 0 0
306 1 2 0.990646 1.78983 -1.48207 0 0 0
254 1 2 7.38364 -5.84232 0.995679 0 0 0
244 1 1 10.3718 -5.39518 1.29219 0 0 0
245 1 2 10.9023 -6.34795 1.33571 0 0 0
248 1 2 10.8113 -5.37483 -0.831692 0 0 0
250 1 1 8.66181 -5.49838 -0.732748 0 0 0
251 1 2 8.70008 -6.58599 -0.803708 0 0 0
161 1 2 28.274 -5.98584 1.41598 0 0 0
252 1 1 7.48707 -5.13287 0.174789 0 0 0
253 1 2 6.54619 -5.14608 -0.369901 0 0 0
255 1 2 7.59842 -4.13517 0.600098 0 0 0
243 1 2 10.9743 -3.30882 1.48451 0 0 0
247 1 1 10.0137 -5.03244 -0.173092 0 0 0
249 1 2 10.0077 -3.94779 -0.279986 0 0 0
242 1 2 12.2424 -4.44234 1.77515 0 0 0
164 1 2 28.1982 -3.71881 0.757926 0 0 0
145 1 1 32.932 -2.79183 1.40202 0 0 0
146 1 2 32.1828 -2.08517 1.04538 0 0 0
151 1 1 32.3742 -4.23829 1.45733 0 0 0
153 1 2 32.79 -4.85487 0.659787 0 0 0
154 1 1 30.8612 -4.26754 1.31351 0 0 0
155 1 2 30.5005 -3.2946 1.639 0 0 0
156 1 2 30.5919 -4.35927 0.261211 0 0 0
147 1 1 34.0884 -2.74624 0.388488 0 0 0
148 1 2 33.7237 -2.78511 -0.638774 0 0 0
150 1 2 34.7797 -3.5772 0.527595 0 0 0
1 1 1 -6.14863 0.240188 0.621299 1 0 0
2 1 2 -6.49251 -0.201755 -0.324747 2 0 1
5 1 2 -8.16017 1.29288 1.04689 1 0 0
301 1 1 -4.3505 -0.10928 0.800721 1 0 0
302 1 2 -3.92788 0.65613 0.175655 1 0 0
303 1 2 -4.37163 -1.1408 0.415283 1 0 0
304 1 2 -4.17841 -0.116825 1.88435 0 0 -1
295 1 1 -0.868129 0.507706 -0.93523 0 0 0
297 1 1 -2.42204 0.242714 0.25002 0 0 0
298 1 2 -2.4334 1.05234 1.01505 0 0 0
299 1 2 -2.63494 -0.790041 0.497245 0 0 0
300 1 2 -1.6725 -0.0545007 0.99198 0 0 0
296 1 2 -0.268858 -0.245953 -0.433707 0 0 0
149 1 2 34.6543 -1.82014 0.491057 0 0 0
305 1 1 -0.00158973 1.89048 -1.02379 0 0 0
307 1 2 -0.505565 2.65686 -1.61534 0 0 0
308 1 2 0.207185 2.32303 -0.0479358 0 0 0
237 1 1 10.7875 -5.25614 4.30868 0 0 0
238 1 2 11.6121 -5.956 4.18796 0 0 0
239 1 2 9.88322 -5.78494 4.01446 0 0 0
246 1 2 9.45666 -5.54719 1.85578 0 0 0
171 1 2 26.0084 -6.03269 2.97049 0 0 0
172 1 1 26.0619 -6.2646 5.14144 0 0 0
173 1 2 25.9506 -7.33715 4.97452 0 0 0
180 1 2 22.7519 -5.36696 4.99415 0 0 0
160 1 1 28.6083 -5.30341 2.19796 0 0 0
166 1 1 28.0746 -5.8671 3.5488 0 0 0
167 1 2 28.6138 -5.41421 4.38065 0 0 0
168 1 2 28.2967 -6.93469 3.59205 0 0 0
169 1 1 26.5797 -5.65608 3.8186 0 0 0
157 1 1 30.1512 -5.33179 2.17688 0 0 0
159 1 2 30.4682 -6.32702 1.86323 0 0 0
232 1 1 12.0065 -2.99505 4.1314 0 0 0
233 1 2 11.4888 -2.50148 4.95306 0 0 0
235 1 1 10.9857 -3.9806 3.48698 0 0 0
236 1 2 10.0347 -3.45059 3.54531 0 0 0
241 1 1 11.1884 -4.25815 1.9744 0 0 0
229 1 1 13.3234 -3.57798 4.68388 0 0 0
230 1 2 13.3255 -4.65708 4.55898 0 0 0
231 1 2 14.1375 -3.23849 4.04355 0 0 0
234 1 2 12.225 -2.18521 3.43442 0 0 0
177 1 1 23.7751 -5.10751 4.72528 0 0 0
178 1 2 23.8394 -4.01948 4.69981 0 0 0
179 1 2 23.9293 -5.47325 3.7119 0 0 0
162 1 1 28.0169 -3.92905 1.81255 0 0 0
163 1 2 28.4319 -3.11134 2.40094 0 0 0
165 1 2 26.9371 -3.88878 1.92242 0 0 0
170 1 2 26.3987 -4.58457 3.88416 0 0 0
152 1 2 32.6699 -4.75924 2.36764 0 0 0
158 1 2 30.5147 -5.22111 3.19876 0 0 0
142 1 1 33.4216 -2.3898 2.81939 0 0 0
143 1 2 34.5074 -2.4485 2.83836 0 0 0
144 1 2 33.1153 -3.11739 3.57161 0 0 0
14 1 2 -10.6118 1.93119 2.76426 1 0 0
15 1 2 -10.5666 1.2339 4.38659 1 0 0
3 1 2 -6.04414 1.26484 0.269222 1 0 0
4 1 1 -7.59449 0.567115 1.63683 1 0 0
6 1 2 -8.25942 -0.299419 1.57543 1 0 0
7 1 1 -7.79163 1.19337 3.22297 1 0 0
8 1 2 -7.87919 0.346747 3.90676 1 0 0
9 1 2 -6.81271 1.60454 3.45282 1 0 0
139 1 1 32.9254 -1.02944 3.36135 0 0 0
140 1 2 32.0727 -1.19503 4.0186 0 0 0
141 1 2 32.5494 -0.418621 2.54042 0 0 0
136 1 1 34.023 -0.218884 4.07727 0 0 0
137 1 2 34.3025 0.575445 3.38418 0 0 0
138 1 2 34.9346 -0.806374 4.17347 0 0 0
12 1 1 -10.2948 2.10501 3.79088 1 0 0
13 1 2 -10.8654 2.9554 4.16831 1 0 0
20 1 2 -9.50538 4.76233 4.77065 1 0 0
10 1 1 -8.79497 2.36461 3.83949 1 0 0
11 1 2 -8.62849 3.22625 3.19274 1 0 0
128 1 2 34.9548 2.1102 5.02443 0 0 0
129 1 2 33.2679 2.42251 4.78801 0 0 0
41 1 2 -15.2383 8.02233 5.29897 1 0 0
35 1 2 -12.5804 6.38615 5.28788 1 0 0
225 1 2 13.4957 -5.8838 8.43106 0 0 0
208 1 2 17.8911 -7.4182 8.69707 0 0 0
215 1 2 16.7053 -5.8519 7.7487 0 0 0
210 1 2 19.2304 -6.3548 8.27324 0 0 0
175 1 1 24.7375 -5.72967 5.74036 0 0 0
176 1 2 24.2289 -6.63775 6.06288 0 0 0
184 1 1 24.6382 -5.53139 8.34641 0 0 0
185 1 2 25.5682 -5.92515 8.75486 0 0 0
186 1 2 24.0121 -6.40499 8.17284 0 0 0
174 1 2 26.8288 -6.18913 5.91107 0 0 0
240 1 2 10.6871 -5.02643 5.36961 0 0 0
218 1 2 15.3673 -3.22853 8.42435 0 0 0
220 1 1 14.2333 -4.38802 7.00363 0 0 0
221 1 2 14.4584 -5.21031 6.32541 0 0 0
222 1 1 13.2213 -4.91305 8.02331 0 0 0
223 1 2 12.2583 -5.0648 7.53928 0 0 0
224 1 2 13.0769 -4.21938 8.85199 0 0 0
226 1 1 13.6464 -3.20344 6.16647 0 0 0
227 1 2 12.7524 -2.84437 6.67469 0 0 0
228 1 2 14.315 -2.34194 6.17631 0 0 0
214 1 1 16.2224 -5.23618 8.50442 0 0 0
217 1 1 15.5483 -4.05405 7.73475 0 0 0
219 1 2 16.2534 -3.6711 6.99709 0 0 0
181 1 1 24.9112 -4.82945 6.99594 0 0 0
182 1 2 25.8954 -4.36247 7.01016 0 0 0
183 1 2 24.2281 -3.98439 6.91379 0 0 0
189 1 2 23.1625 -4.0998 8.88103 0 0 0
131 1 2 32.6078 0.263541 5.67234 0 0 0
130 1 1 33.6629 0.41352 5.44869 0 0 0
132 1 1 34.4919 -0.263652 6.54778 0 0 0
133 1 2 34.4863 -1.34922 6.44373 0 0 0
134 1 2 35.5292 0.0668919 6.51306 0 0 0
135 1 2 34.1056 -0.0374264 7.5414 0 0 0
22 1 1 -9.70571 4.59628 6.90609 1 0 0
23 1 2 -10.4954 3.84715 6.91608 1 0 0
24 1 2 -9.08543 4.32821 7.76078 1 0 0
33 1 2 -12.2067 5.01108 7.32547 1 0 0
16 1 1 -8.51896 2.8966 5.31196 1 0 0
17 1 2 -8.9602 2.2261 6.05184 1 0 0
18 1 2 -7.44864 2.82921 5.49685 1 0 0
19 1 1 -8.9182 4.37898 5.60448 1 0 0
21 1 2 -8.02626 5.00481 5.63328 1 0 0
123 1 2 32.6523 4.3526 6.52052 0 0 0
115 1 1 34.1976 5.13199 7.81531 0 0 0
116 1 2 33.4661 5.14479 8.62347 0 0 0
117 1 1 35.4949 4.66162 8.46039 0 0 0
120 1 2 36.2623 4.47928 7.70924 0 0 0
121 1 1 33.7079 4.16299 6.7093 0 0 0
122 1 2 34.212 4.44072 5.78359 0 0 0
124 1 1 33.9393 2.63894 6.84509 0 0 0
125 1 2 34.8767 2.41111 7.34569 0 0 0
126 1 2 33.1543 2.22032 7.47431 0 0 0
127 1 1 33.972 1.93399 5.4623 0 0 0
46 1 1 -16.296 8.05547 7.14777 1 0 0
47 1 2 -16.8051 7.13037 6.87361 1 0 0
48 1 2 -16.0903 7.97547 8.21571 1 0 0
53 1 2 -18.59 8.18255 8.28986 1 0 0
54 1 2 -19.2315 8.47202 6.70368 1 0 0
34 1 1 -12.6745 6.81668 6.28532 1 0 0
37 1 1 -14.1474 6.82654 6.69706 1 0 0
38 1 2 -14.6243 5.94752 6.26171 1 0 0
39 1 2 -14.2033 6.66919 7.77506 1 0 0
40 1 1 -14.9802 8.08974 6.35621 1 0 0
25 1 1 -10.3143 6.02813 6.99165 1 0 0
26 1 2 -10.1556 6.56476 6.05477 1 0 0
27 1 1 -9.57566 6.76955 8.12256 1 0 0
28 1 2 -10.215 7.41323 8.72487 1 0 0
31 1 1 -11.8236 6.02968 7.29731 1 0 0
32 1 2 -12.0198 6.41066 8.29935 1 0 0
36 1 2 -12.2781 7.82703 6.2131 1 0 0
29 1 2 -9.05608 6.12039 8.82602 1 0 0
30 1 2 -8.82741 7.42953 7.68593 1 0 0
106 1 1 35.4181 8.8061 6.98024 0 0 0
108 1 2 35.9306 8.73148 6.02034 0 0 0
109 1 1 35.3916 7.46349 7.71316 0 0 0
110 1 2 35.282 7.60775 8.78789 0 0 0
111 1 2 36.3551 6.98323 7.55051 0 0 0
112 1 1 34.2657 6.56236 7.21981 0 0 0
113 1 2 34.3429 6.53046 6.13269 0 0 0
114 1 2 33.3145 7.05569 7.41869 0 0 0
69 1 2 -23.5496 10.1633 7.92541 1 0 0
71 1 2 -24.4143 12.3062 8.76707 1 0 0
78 1 2 -25.8534 10.4479 8.08404 1 0 0
61 1 1 -20.9472 9.92993 8.0736 1 0 0
62 1 2 -21.1221 8.90263 8.39671 1 0 0
63 1 2 -21.2938 9.97167 7.04046 1 0 0
65 1 2 -21.7496 11.8904 8.57817 1 0 0
49 1 1 -17.2662 9.23147 6.92607 1 0 0
50 1 2 -16.8752 10.1277 7.40268 1 0 0
51 1 2 -17.3515 9.46208 5.86338 1 0 0
52 1 1 -18.6557 8.93686 7.50478 1 0 0
55 1 1 -19.4234 10.1709 8.05409 1 0 0
56 1 2 -19.263 10.9821 7.34317 1 0 0
42 1 1 -14.245 9.43336 6.52524 1 0 0
43 1 2 -13.6719 9.65804 5.62597 1 0 0
44 1 2 -14.8969 10.2894 6.67334 1 0 0
45 1 2 -13.5579 9.41163 7.37013 1 0 0
100 1 1 35.9128 10.0009 7.83211 0 0 0
102 1 1 35.0467 11.2158 7.46506 0 0 0
103 1 2 34.2229 11.2992 8.17293 0 0 0
104 1 2 35.5967 12.1552 7.51246 0 0 0
105 1 2 34.6182 11.1535 6.46387 0 0 0
107 1 2 34.3799 9.00231 6.71361 0 0 0
91 1 1 39.6977 10.4153 8.75862 0 0 0
92 1 2 39.8331 9.33897 8.64385 0 0 0
93 1 2 40.0262 10.8594 7.81866 0 0 0
97 1 1 37.4039 10.3059 7.6163 0 0 0
98 1 2 37.5581 11.0498 6.83401 0 0 0
99 1 2 37.8487 9.39028 7.22493 0 0 0
216 1 2 15.5055 -5.88764 8.99484 0 0 0
205 1 1 18.2557 -5.82276 10.1679 0 0 0
206 1 2 17.7638 -6.4146 10.9406 0 0 0
207 1 1 18.7216 -6.84416 9.10361 0 0 0
199 1 1 20.7758 -5.7474 10.9999 0 0 0
200 1 2 20.7636 -6.46772 11.8183 0 0 0
201 1 2 20.9409 -6.32166 10.0958 0 0 0
209 1 2 19.3809 -7.60154 9.52524 0 0 0
190 1 1 23.2862 -5.4706 10.5498 0 0 0
191 1 2 23.0291 -6.45428 10.1592 0 0 0
192 1 1 24.3091 -5.71216 11.6699 0 0 0
193 1 2 24.8558 -6.63481 11.4734 0 0 0
204 1 2 19.0926 -4.69749 11.8439 0 0 0
211 1 1 17.2199 -4.79527 9.605 0 0 0
212 1 2 16.6699 -4.36685 10.4436 0 0 0
213 1 2 17.764 -3.95725 9.17086 0 0 0
196 1 1 21.9955 -4.81334 11.1027 0 0 0
197 1 2 21.7925 -3.89823 10.5476 0 0 0
198 1 2 22.1148 -4.48125 12.1345 0 0 0
202 1 1 19.4164 -5.04257 10.861 0 0 0
203 1 2 19.5942 -4.13197 10.2904 0 0 0
187 1 1 23.9437 -4.64935 9.40544 0 0 0
188 1 2 24.6169 -3.88179 9.78688 0 0 0
194 1 2 25.0398 -4.90857 11.7504 0 0 0
118 1 2 35.3395 3.74245 9.02431 0 0 0
119 1 2 35.878 5.37719 9.18616 0 0 0
79 1 1 -27.0809 11.327 9.61426 1 0 0
80 1 2 -27.3177 12.1229 8.9089 1 0 0
81 1 2 -26.9633 11.7971 10.5877 1 0 0
82 1 1 -28.2541 10.3283 9.71309 1 0 0
83 1 2 -28.2319 9.6845 8.83286 1 0 0
84 1 2 -28.06 9.65688 10.5507 1 0 0
85 1 1 -29.6747 10.9163 9.88405 1 0 0
86 1 2 -30.0534 10.4455 10.7926 1 0 0
67 1 1 -23.3172 10.4483 8.95245 1 0 0
68 1 2 -23.3933 9.52664 9.52978 1 0 0
70 1 1 -24.4414 11.4235 9.40798 1 0 0
72 1 1 -24.3126 11.9114 10.8663 1 0 0
74 1 2 -24.4417 11.0932 11.5754 1 0 0
75 1 2 -23.3349 12.3545 11.0452 1 0 0
76 1 1 -25.7697 10.6776 9.14703 1 0 0
77 1 2 -25.7013 9.71084 9.64803 1 0 0
64 1 1 -21.8372 10.8698 8.95037 1 0 0
66 1 2 -21.4923 10.8835 9.98381 1 0 0
57 1 1 -18.8776 10.6692 9.39956 1 0 0
58 1 2 -17.7904 10.7033 9.40052 1 0 0
59 1 2 -19.1852 10.0334 10.2296 1 0 0
60 1 2 -19.2201 11.6843 9.60362 1 0 0
101 1 2 35.7478 9.7887 8.88844 0 0 0
94 1 1 38.1936 10.6598 8.90672 0 0 0
95 1 2 37.8416 10.0674 9.75141 0 0 0
96 1 2 37.9991 11.7017 9.15821 0 0 0
87 1 1 -29.7362 12.4231 10.1874 1 0 0
88 1 2 -29.1135 12.6803 11.0442 1 0 0
90 1 2 -29.4149 13.0224 9.33599 1 0 0
73 1 2 -25.0411 12.6853 11.1053 1 0 0
89 1 2 39.5627 12.7361 10.4421 0 0 0
195 1 2 23.8456 -5.83011 12.6495 0 0 0
ITEM: TIMESTEP
2000
ITEM: NUMBER OF ATOMS
308
ITEM: BOX BOUNDS pp pp pp
-2.9160403239788181e+01 3.9160403239788181e+01
-3.0000000000000000e+01 6.1964045980000002e+01
-3.0000000000000000e+01 6.1964045980000002e+01
ITEM: ATOMS id mol type x y z ix iy iz
270 1 2 4.57182 -6.23632 -6.42343 0 0 0
267 1 1 5.61506 -6.17021 -6.1153 0 0 0
268 1 2 6.2138 -5.99474 -7.00927 0 0 0
269 1 2 5.89222 -7.14613 -5.71505 0 0 0
282 1 1 1.37577 -3.19133 -5.26835 0 0 0
285 1 2 1.46391 -3.82395 -6.15373 0 0 0
274 1 1 4.16252 -3.42032 -6.16933 0 0 0
275 1 2 4.08975 -3.59405 -7.24399 0 0 0
276 1 2 3.56357 -4.19789 -5.70729 0 0 0
277 1 1 3.6403 -2.00436 -5.80004 0 0 0
280 1 1 2.1381 -1.86487 -5.42714 0 0 0
271 1 1 5.58861 -3.66805 -5.67533 0 0 0
273 1 2 6.29102 -3.47626 -6.48736 0 0 0
279 1 2 3.90227 -1.30173 -6.5932 0 0 0
281 1 2 1.72118 -1.48516 -6.36256 0 0 0
259 1 1 7.34567 -5.6814 -3.03919 0 0 0
260 1 2 7.59992 -6.74059 -3.09469 0 0 0
261 1 2 6.37618 -5.63471 -2.54654 0 0 0
263 1 2 7.93624 -5.62758 -5.13705 0 0 0
284 1 2 0.311438 -3.00286 -5.13753 0 0 0
290 1 2 0.911961 -2.00124 -2.79995 0 0 0
283 1 2 1.72215 -3.75543 -4.40219 0 0 0
266 1 2 5.09607 -5.20872 -4.26516 0 0 0
256 1 1 8.36306 -4.92809 -2.16496 0 0 0
258 1 2 8.09838 -3.87163 -2.0986 0 0 0
262 1 1 7.24854 -5.10899 -4.46852 0 0 0
264 1 2 7.6401 -4.09176 -4.42845 0 0 0
265 1 1 5.82549 -5.06646 -5.06353 0 0 0
272 1 2 5.83401 -2.93877 -4.90356 0 0 0
257 1 2 9.31817 -4.96154 -2.6914 0 0 0
288 1 2 1.09786 -0.0574028 -4.89011 0 0 0
289 1 1 1.14399 -0.941592 -2.89713 0 0 0
292 1 1 -0.205675 -0.0918726 -2.42391 0 0 0
293 1 2 -1.04454 -0.626155 -2.86285 0 0 0
294 1 2 -0.159086 0.800569 -3.05244 0 0 0
278 1 2 4.18495 -1.64774 -4.92768 0 0 0
286 1 1 1.79797 -0.70799 -4.36681 0 0 0
287 1 2 2.67575 -0.0687615 -4.25821 0 0 0
291 1 2 1.94183 -0.781515 -2.16977 0 0 0
254 1 2 7.31603 -5.80978 1.02774 0 0 0
244 1 1 10.2145 -5.3625 1.30021 0 0 0
245 1 2 10.724 -6.32438 1.37447 0 0 0
248 1 2 10.7183 -5.39253 -0.807388 0 0 0
250 1 1 8.55437 -5.51127 -0.745997 0 0 0
251 1 2 8.58984 -6.59914 -0.822168 0 0 0
161 1 2 27.5721 -6.00483 1.41237 0 0 0
252 1 1 7.39041 -5.12985 0.179289 0 0 0
253 1 2 6.43259 -5.17892 -0.335061 0 0 0
255 1 2 7.50076 -4.11568 0.565289 0 0 0
243 1 2 10.8691 -3.29126 1.4809 0 0 0
247 1 1 9.90198 -5.03405 -0.179917 0 0 0
249 1 2 9.9029 -3.95091 -0.305743 0 0 0
242 1 2 12.1045 -4.45798 1.81098 0 0 0
164 1 2 27.5949 -3.6521 0.798454 0 0 0
162 1 1 27.3419 -3.92967 1.82243 0 0 0
145 1 1 32.1383 -2.78799 1.4171 0 0 0
146 1 2 31.3798 -2.08616 1.0683 0 0 0
151 1 1 31.6137 -4.24056 1.44699 0 0 0
153 1 2 32.0256 -4.83637 0.631129 0 0 0
154 1 1 30.106 -4.2684 1.3016 0 0 0
155 1 2 29.7373 -3.2976 1.62552 0 0 0
156 1 2 29.8262 -4.3809 0.253575 0 0 0
147 1 1 33.2824 -2.74232 0.395415 0 0 0
148 1 2 32.9025 -2.8467 -0.621783 0 0 0
150 1 2 34.0099 -3.53732 0.563403 0 0 0
149 1 2 33.8128 -1.7911 0.445078 0 0 0
1 1 1 -5.70155 0.375799 0.687965 1 0 0
2 1 2 -6.09289 -0.241183 -0.126028 2 0 1
5 1 2 -7.73122 1.23476 1.06897 1 0 0
3 1 2 -5.67354 1.36459 0.235106 1 0 0
4 1 1 -7.09148 0.590149 1.67646 1 0 0
6 1 2 -7.65158 -0.347472 1.65123 1 0 0
301 1 1 -4.00429 0.0122708 0.668466 1 0 0
302 1 2 -3.69938 0.527093 -0.249741 1 0 0
303 1 2 -4.15365 -1.07101 0.541845 1 0 0
297 1 1 -2.22255 0.234796 0.0841833 0 0 0
298 1 2 -2.34505 1.12124 0.739851 0 0 0
299 1 2 -2.43818 -0.825751 0.181771 0 0 0
306 1 2 1.01549 1.7753 -1.31199 0 0 0
295 1 1 -0.693252 0.415497 -0.872965 0 0 0
300 1 2 -1.67667 -0.0366349 0.992564 0 0 0
296 1 2 -0.0114078 -0.174186 -0.259791 0 0 0
305 1 1 0.00262112 1.83738 -0.901657 0 0 0
307 1 2 -0.536349 2.55847 -1.51824 0 0 0
308 1 2 0.116394 2.26563 0.0928473 0 0 0
237 1 1 10.6183 -5.27281 4.31688 0 0 0
238 1 2 11.4363 -5.97835 4.17675 0 0 0
239 1 2 9.7025 -5.79776 4.04941 0 0 0
246 1 2 9.29354 -5.48117 1.86241 0 0 0
171 1 2 25.3624 -6.03339 2.98992 0 0 0
172 1 1 25.489 -6.27122 5.15114 0 0 0
173 1 2 25.3893 -7.34471 4.98219 0 0 0
180 1 2 22.1914 -5.22349 5.02266 0 0 0
179 1 2 23.3037 -5.56371 3.72677 0 0 0
160 1 1 27.9198 -5.31968 2.1868 0 0 0
166 1 1 27.4308 -5.85349 3.55276 0 0 0
167 1 2 27.9799 -5.37651 4.36565 0 0 0
168 1 2 27.6617 -6.91831 3.61576 0 0 0
169 1 1 25.9441 -5.64206 3.82495 0 0 0
157 1 1 29.4564 -5.33946 2.17781 0 0 0
159 1 2 29.8022 -6.32991 1.87904 0 0 0
232 1 1 11.7934 -2.98873 4.12727 0 0 0
233 1 2 11.2596 -2.48154 4.93089 0 0 0
235 1 1 10.7963 -3.99176 3.48361 0 0 0
236 1 2 9.82916 -3.48807 3.52338 0 0 0
241 1 1 11.0489 -4.24473 1.97808 0 0 0
240 1 2 10.5469 -5.04056 5.37992 0 0 0
229 1 1 13.1003 -3.59037 4.69439 0 0 0
230 1 2 13.105 -4.66886 4.56804 0 0 0
231 1 2 13.9322 -3.26041 4.07145 0 0 0
234 1 2 12.0314 -2.19255 3.42037 0 0 0
177 1 1 23.2283 -5.10163 4.70991 0 0 0
178 1 2 23.4116 -4.0328 4.59544 0 0 0
163 1 2 27.6992 -3.1462 2.49168 0 0 0
165 1 2 26.2547 -3.91169 1.85077 0 0 0
170 1 2 25.7551 -4.57082 3.88602 0 0 0
152 1 2 31.9323 -4.77112 2.34458 0 0 0
158 1 2 29.8281 -5.19262 3.19285 0 0 0
144 1 2 32.3761 -3.11628 3.57304 0 0 0
142 1 1 32.6551 -2.37923 2.81923 0 0 0
143 1 2 33.7439 -2.41163 2.81606 0 0 0
15 1 2 -10.1187 1.1887 4.3473 1 0 0
7 1 1 -7.29974 1.19324 3.20334 1 0 0
8 1 2 -7.43732 0.325834 3.85068 1 0 0
9 1 2 -6.31602 1.56992 3.472 1 0 0
304 1 2 -3.63338 0.219115 1.6781 0 0 -1
139 1 1 32.1288 -1.02856 3.36016 0 0 0
140 1 2 31.2797 -1.2167 4.0177 0 0 0
141 1 2 31.7362 -0.418291 2.546 0 0 0
136 1 1 33.2269 -0.212139 4.08018 0 0 0
137 1 2 33.531 0.573742 3.38726 0 0 0
138 1 2 34.1324 -0.806345 4.20191 0 0 0
14 1 2 -10.1911 1.85072 2.71328 1 0 0
12 1 1 -9.85812 2.04916 3.73058 1 0 0
13 1 2 -10.4407 2.89647 4.09857 1 0 0
20 1 2 -9.12466 4.72358 4.74369 1 0 0
10 1 1 -8.3446 2.33787 3.7742 1 0 0
11 1 2 -8.18134 3.19963 3.12624 1 0 0
16 1 1 -8.09937 2.86522 5.25608 1 0 0