LAMMPS data file via write_data, version 17 Apr 2024, timestep = 100000, units = real

308 atoms
2 atom types
308 bonds
2 bond types
612 angles
3 angle types
909 dihedrals
3 dihedral types

-29.48647757833683 39.48647757833683 xlo xhi
-30 61.96404598 ylo yhi
-30 61.96404598 zlo zhi

Masses

1 12.011
2 1.0079

Pair Coeffs # lj/cut/coul/long

1 0.066 3.5
2 0.03 2.5

Bond Coeffs # harmonic

1 268 1.529
2 340 1.09

Angle Coeffs # harmonic

1 58.35 112.7
2 37.5 110.7
3 33 107.8

Dihedral Coeffs # multi/harmonic

1 3.565 5.393 -9.42 -2.776 8.472
2 0.15 -0.45 0 0.6 0
3 0.15 -0.45 0 0.6 0

Atoms # full

270 1 2 0.06 5.058582743770984 -5.602486558611396 -7.176616517179774 0 0 0
267 1 1 -0.18 6.009853033035718 -5.527685674710913 -6.647168397751429 0 0 0
269 1 2 0.06 6.420237469616843 -6.535605056877262 -6.572851720139976 0 0 0
285 1 2 0.06 0.9110038554228552 -3.984886636370451 -5.462580269689333 0 0 0
275 1 2 0.06 3.1284014233370314 -3.715332469791562 -6.156586366305284 0 0 0
268 1 2 0.06 6.6915807773424305 -4.9386048369952995 -7.262359339799399 0 0 0
271 1 1 -0.12 5.144601859616834 -3.507243355577639 -5.419778662869092 0 0 0
273 1 2 0.06 5.408671296154381 -3.037326955470821 -6.368722363643769 0 0 0
265 1 1 -0.06 5.815498716567184 -4.903745344349076 -5.253597294931428 0 0 0
281 1 2 0.06 1.4417912961065937 -1.652665759502856 -5.911260901660697 0 0 0
266 1 2 0.06 5.161697513446406 -5.566984854843366 -4.684925053395283 0 0 0
259 1 1 -0.12 7.195797093022804 -5.375794510451332 -3.1098213496747675 0 0 0
260 1 2 0.06 7.353245397167029 -6.454660728966463 -3.1452455917708413 0 0 0
263 1 2 0.06 7.973641822270615 -5.357235934562162 -5.102619563452986 0 0 0
290 1 2 0.06 -0.8221518159362446 -1.7046225815506908 -3.172318393305563 0 0 0
284 1 2 0.06 -0.4380938223858024 -2.987063339394151 -4.990873650924989 0 0 0
280 1 1 -0.06 1.5014595688363563 -1.9516945803244532 -4.862773764037399 0 0 0
282 1 1 -0.18 0.6043459986330966 -3.2118237046951457 -4.758736403445841 0 0 0
283 1 2 0.06 0.6440408148669263 -3.6480855149548255 -3.760255029844469 0 0 0
277 1 1 -0.12 3.027898832461105 -2.1947593430928833 -4.606552526549187 0 0 0
274 1 1 -0.12 3.601379075855995 -3.507041777555827 -5.195956713530087 0 0 0
261 1 2 0.06 6.204742533913134 -5.226345563973261 -2.679410388467769 0 0 0
276 1 2 0.06 3.303303430464318 -4.32253462378733 -4.535982605329309 0 0 0
272 1 2 0.06 5.562608455640046 -2.849018229963363 -4.656790579389099 0 0 0
278 1 2 0.06 3.2271906087916378 -2.1888134028207844 -3.5336527610819317 0 0 0
256 1 1 -0.12 8.241243697502583 -4.6985817464608175 -2.1904806901764324 0 0 0
258 1 2 0.06 7.968092852823652 -3.6562301686142824 -2.0181106517593754 0 0 0
262 1 1 -0.12 7.207873852016043 -4.814816567671592 -4.544076522327401 0 0 0
264 1 2 0.06 7.564483986176697 -3.78381221370579 -4.538246633906471 0 0 0
257 1 2 0.06 9.193296440853317 -4.67254264314305 -2.724827628501739 0 0 0
293 1 2 0.06 -1.522505782975962 0.49796302380940816 -2.834715442156771 0 0 0
292 1 1 -0.12 -0.6477983393948072 0.21506676799827673 -2.246163375584768 0 0 0
294 1 2 0.06 0.04303259546177429 1.0537835282266421 -2.3485565797518255 0 0 0
288 1 2 0.06 0.4209275279809894 -0.09165095793820299 -4.738650996602114 0 0 0
289 1 1 -0.12 -0.008171858099597529 -1.0442788340533298 -2.874335809840172 0 0 0
286 1 1 -0.12 0.9645879567943787 -0.7356665898347075 -4.045206871342213 0 0 0
287 1 2 0.06 1.7972668653452288 -0.1255396510106621 -3.690274879094332 0 0 0
291 1 2 0.06 0.5678055265435233 -1.5856716059804334 -2.122203307411155 0 0 0
279 1 2 0.06 3.586976651579924 -1.3494484713743198 -5.01249952542463 0 0 0
253 1 2 0.06 6.288877031793298 -5.519944881147893 -0.4616953646583539 0 0 0
254 1 2 0.06 7.254150958011472 -5.883506357372585 0.9359099768247532 0 0 0
244 1 1 -0.12 9.974346312602528 -5.241568041645692 1.3119600922746422 0 0 0
250 1 1 -0.06 8.469886089466868 -5.425031136284964 -0.8444578542982661 0 0 0
251 1 2 0.06 8.569670628267389 -6.4928175643069395 -1.0474007399777179 0 0 0
245 1 2 0.06 10.046830716910101 -6.313077140755155 1.5025147458989139 0 0 0
252 1 1 -0.18 7.210740055503635 -5.2469297522934255 0.05212995738729376 0 0 0
248 1 2 0.06 10.671225324751262 -5.397532517683047 -0.7385571793603205 0 0 0
161 1 2 0.06 27.753284562840626 -5.860815963914401 1.5571028072005255 0 0 0
255 1 2 0.06 7.102338970974131 -4.213962100055408 0.38462052031994887 0 0 0
247 1 1 -0.12 9.824069182914002 -4.967722136442536 -0.2001862144221569 0 0 0
249 1 2 0.06 9.907722540861933 -3.8890690425899983 -0.3414893006497408 0 0 0
246 1 2 0.06 9.057100163484357 -4.913019601529413 1.7967667012714834 0 0 0
243 1 2 0.06 11.37895054847143 -3.584509381302155 1.4400310925980193 0 0 0
164 1 2 0.06 27.746984773140376 -3.4474714424494906 0.9864778393709948 0 0 0
146 1 2 0.06 31.82459897159554 -2.0044375194612236 1.0869029872718592 0 0 0
151 1 1 -0.12 31.894710722596727 -4.158986517207861 1.4982433936847848 0 0 0
154 1 1 -0.12 30.339008977094636 -4.118283620310471 1.4069799353355705 0 0 0
155 1 2 0.06 29.99681083480636 -3.1163055732461657 1.6661196756154766 0 0 0
156 1 2 0.06 30.02191488664269 -4.291885811844516 0.37764372696273796 0 0 0
145 1 1 -0.06 32.57127159454059 -2.7633420433066824 1.3261452254882578 0 0 0
153 1 2 0.06 32.273208628929375 -4.8744444295498575 0.765922797821208 0 0 0
147 1 1 -0.18 33.55357735176685 -2.8332514957449426 0.13314605265420454 0 0 0
148 1 2 0.06 33.03161648401458 -3.118604019926508 -0.7811144485692267 0 0 0
150 1 2 0.06 34.35251665694203 -3.557736363451717 0.30092879175860077 0 0 0
149 1 2 0.06 34.021401259891064 -1.8657609683497576 -0.05560421853783737 0 0 0
5 1 2 0.06 -6.716202687443477 0.128167036737576 1.7307484572328171 1 0 0
1 1 1 -0.12 -5.462119255699587 1.4060884268757832 0.49576793228155225 1 0 0
2 1 2 0.06 -6.23239443758094 1.1413441480726227 -0.2324318350262864 2 0 1
302 1 2 0.06 -4.174574147867034 1.2461439413991755 -1.0151945582856534 1 0 0
301 1 1 -0.18 -4.077029911508259 0.869234749108557 0.013722874970468979 1 0 0
303 1 2 0.06 -4.282440869185862 -0.19917782644168014 0.17513194197879756 1 0 0
297 1 1 -0.18 -2.51917667315276 0.4042858159999092 -0.43769049746149236 0 0 0
298 1 2 0.06 -2.3988515162814856 1.4776592734483316 -0.6479773818684258 0 0 0
299 1 2 0.06 -3.0180705612633396 -0.21637252263777285 -1.194546468006049 0 0 0
295 1 1 -0.06 -1.0254250687307085 0.027319087776874085 -0.7497330273703504 0 0 0
300 1 2 0.06 -2.491088565918652 0.009304938454963718 0.589161177079955 0 0 0
304 1 2 0.06 -3.542848081874954 1.462253920464768 0.7747426264436683 0 0 -1
296 1 2 0.06 -0.8881229244214701 -1.0220116963761896 -0.4793573452799116 0 0 0
306 1 2 0.06 0.9701565714718008 0.5980064111965113 -0.024467817115628065 0 0 0
305 1 1 -0.18 -0.07393375381649037 0.8762644272986648 0.13247722104630455 0 0 0
308 1 2 0.06 -0.28760060979077906 0.737942553007187 1.192743629551746 0 0 0
3 1 2 0.06 -5.448588569544217 2.4975408461050677 0.4902084133833746 1 0 0
307 1 2 0.06 -0.16289387287196178 1.9418095468789431 -0.08362621994106689 0 0 0
239 1 2 0.06 9.301483551123312 -5.5957473351074825 3.996179309640951 0 0 0
238 1 2 0.06 10.958983202463067 -6.083779587371545 4.3057034757790476 0 0 0
179 1 2 0.06 22.93563635057825 -5.902178199892116 3.9145780754729174 0 0 0
177 1 1 -0.18 23.129715364102886 -5.290503488388179 4.796247581443225 0 0 0
171 1 2 0.06 25.434763902009998 -5.642227115386444 3.034677550349258 0 0 0
172 1 1 -0.12 25.432821278450824 -6.4461708536869935 5.027241284322848 0 0 0
173 1 2 0.06 25.24780457474052 -7.407574413127666 4.54567355573441 0 0 0
166 1 1 -0.12 27.52537968154848 -5.6651449866781824 3.700491212707284 0 0 0
168 1 2 0.06 27.78505009906354 -6.721941986635333 3.7819741553200785 0 0 0
169 1 1 -0.12 25.9992933194357 -5.487062065982354 3.955397094938675 0 0 0
159 1 2 0.06 30.022111491356995 -6.11469187974199 2.1900145883797464 0 0 0
237 1 1 -0.18 10.275953145969538 -5.234342177641171 4.327491831997989 0 0 0
236 1 2 0.06 9.933504949349349 -3.3952064612597965 3.350904686329031 0 0 0
240 1 2 0.06 10.159170706874683 -4.92300316043292 5.366051322239279 0 0 0
242 1 2 0.06 12.04719832339719 -5.092465476236711 1.9911549426093345 0 0 0
232 1 1 -0.12 11.896317625855843 -3.1963029923440303 4.115375543733265 0 0 0
233 1 2 0.06 11.377246006272891 -2.5695447061533727 4.8414696044414 0 0 0
235 1 1 -0.06 10.78903628579507 -4.0673632290201525 3.4518791689032327 0 0 0
241 1 1 -0.12 11.139266515639449 -4.4863500265362966 2.005293193811177 0 0 0
229 1 1 -0.12 13.053763805997548 -3.9510189011379033 4.835957800069046 0 0 0
230 1 2 0.06 12.762887665371252 -4.985410450311587 5.001615853709652 0 0 0
231 1 2 0.06 13.931623919283098 -4.012864606518889 4.190272053851274 0 0 0
234 1 2 0.06 12.314028179724488 -2.488260599404427 3.3976948749306644 0 0 0
180 1 2 0.06 22.168328575675055 -5.117066394167658 5.283048006537108 0 0 0
178 1 2 0.06 23.49818719761962 -4.322495688462638 4.456088465557386 0 0 0
165 1 2 0.06 26.333591961735486 -3.838257692198752 1.9159944541617087 0 0 0
162 1 1 -0.18 27.42183633942546 -3.792011563660232 1.9680271176688393 0 0 0
160 1 1 -0.06 28.062676703259967 -5.156048462785286 2.3311771870861193 0 0 0
167 1 2 0.06 28.057101805864654 -5.173098993504446 4.516448865732649 0 0 0
163 1 2 0.06 27.68677298922033 -3.025262201912671 2.696566504941053 0 0 0
170 1 2 0.06 25.824366778426338 -4.4536257228969305 4.257096508464848 0 0 0
157 1 1 -0.12 29.634080421871325 -5.109616413921703 2.3644834618662784 0 0 0
152 1 2 0.06 32.17672901235991 -4.592036743474129 2.4579029659158778 0 0 0
158 1 2 0.06 29.965280895196173 -4.847543410357122 3.370449867316637 0 0 0
144 1 2 0.06 33.57833233430621 -3.1820769568135105 3.2639188668262022 0 0 0
142 1 1 -0.12 33.38664512405784 -2.3482519444330805 2.588078893914968 0 0 0
143 1 2 0.06 34.383581742600725 -2.0261863128468924 2.279019120988714 0 0 0
15 1 2 0.06 -8.062044889941898 0.04725925557914579 3.95360733254865 1 0 0
14 1 2 0.06 -8.787181274430974 0.44115104754352075 2.3899222195605674 1 0 0
12 1 1 -0.18 -8.590372469800467 0.8192224022222945 3.3930393904384886 1 0 0
13 1 2 0.06 -9.568390873121661 0.958956545757939 3.8578629684332952 1 0 0
4 1 1 -0.12 -5.926816849934443 0.8637594651602498 1.8710612238347544 1 0 0
6 1 2 0.06 -5.104036444413257 0.28788294309656237 2.2994861370627575 1 0 0
8 1 2 0.06 -5.721686305137069 1.6944552216294753 3.788811411238349 1 0 0
140 1 2 0.06 31.92038440344632 -1.5601334285073527 3.9484259014476137 0 0 0
141 1 2 0.06 32.328558550503544 -0.4367121186068452 2.680101337396678 0 0 0
139 1 1 -0.12 32.756263369274116 -1.172088174772341 3.3631906021522227 0 0 0
136 1 1 -0.12 33.78450654477109 -0.46152567438064906 4.272996351648281 0 0 0
137 1 2 0.06 34.389465655091456 0.2061596569872819 3.6565430103310845 0 0 0
138 1 2 0.06 34.498010094483014 -1.1952266488517225 4.653600976533092 0 0 0
128 1 2 0.06 34.684632569296966 1.8233338615547439 5.354869399986633 0 0 0
20 1 2 0.06 -9.616120646126852 3.9213846408018114 4.258428355867764 1 0 0
10 1 1 -0.06 -7.790910409545514 2.1431476313655082 3.360222374663813 1 0 0
11 1 2 0.06 -8.28321795260328 2.8071264006923826 2.647221210429535 1 0 0
16 1 1 -0.12 -7.827136556753338 2.7790871076448482 4.778426742529362 1 0 0
19 1 1 -0.12 -8.732358994746765 4.025752191836439 4.890352214285485 1 0 0
21 1 2 0.06 -8.180133581100367 4.887332206139071 4.511834259118594 1 0 0
7 1 1 -0.12 -6.298197384388775 1.9650438909967676 2.9020311808666364 1 0 0
9 1 2 0.06 -5.880501373172752 2.9314397844094913 2.6164396728738737 1 0 0
18 1 2 0.06 -6.827674179299326 3.0660327540646293 5.110773285025488 1 0 0
129 1 2 0.06 33.201139469746536 2.229238974710647 4.534612015897757 0 0 0
41 1 2 0.06 -14.832832698813574 7.918365041857086 5.36341070114031 1 0 0
35 1 2 0.06 -12.168224468633753 6.380047258120179 5.118707129783232 1 0 0
225 1 2 0.06 12.891003574987643 -5.46372506897859 8.897108449448787 0 0 0
208 1 2 0.06 17.683412214382045 -7.209108890799445 8.483758398039853 0 0 0
215 1 2 0.06 16.557947196427598 -5.349634494481339 7.387610547194889 0 0 0
221 1 2 0.06 14.166785499989508 -5.315021621176474 6.735802422660015 0 0 0
216 1 2 0.06 15.662857398020208 -5.883393520554673 8.79374640720868 0 0 0
210 1 2 0.06 19.188130683534496 -6.354493130665116 8.1460205749529 0 0 0
175 1 1 -0.06 24.126724210204756 -5.989590720792378 5.754802559507205 0 0 0
176 1 2 0.06 23.629837074676956 -6.901066401214827 6.091521828364215 0 0 0
184 1 1 -0.12 24.102858876933496 -5.82747562041347 8.332935610740627 0 0 0
186 1 2 0.06 23.157672206759692 -6.359354485743058 8.207996959376025 0 0 0
185 1 2 0.06 24.855935288985066 -6.584765055782256 8.555928149075648 0 0 0
174 1 2 0.06 26.20275429360659 -6.653485334673849 5.7731995985409625 0 0 0
220 1 1 -0.06 13.868711626302883 -4.4018710150116895 7.253999389522669 0 0 0
222 1 1 -0.18 12.648766077808716 -4.693931350005659 8.16354408017449 0 0 0
223 1 2 0.06 11.79547452703175 -5.053975563478009 7.585854838771496 0 0 0
224 1 2 0.06 12.322624331225946 -3.8089602863844867 8.71172154303219 0 0 0
226 1 1 -0.12 13.447476926928466 -3.338736308678566 6.200147112246668 0 0 0
227 1 2 0.06 12.63829808013498 -2.73112714127344 6.607737540818796 0 0 0
228 1 2 0.06 14.255367022432722 -2.63133783551131 6.009275353166686 0 0 0
214 1 1 -0.12 16.15138706365658 -5.017521560064601 8.3440965126469 0 0 0
217 1 1 -0.12 15.073377286050786 -3.9303602122652137 8.124852888484469 0 0 0
219 1 2 0.06 15.580540198527729 -3.0849551602628935 7.658386226771469 0 0 0
213 1 2 0.06 17.940908986246384 -3.882803534022095 8.681554754234966 0 0 0
181 1 1 -0.12 24.442619820870263 -5.12118094787429 7.002560349578772 0 0 0
183 1 2 0.06 23.85280286151967 -4.205091427949117 6.944848098035322 0 0 0
182 1 2 0.06 25.48265442052046 -4.7887579749654705 7.006928545956129 0 0 0
131 1 2 0.06 32.04859385613082 0.2693369569399877 5.388638804210622 0 0 0
130 1 1 -0.06 33.13801619570778 0.29752842615283015 5.463640230476997 0 0 0
132 1 1 -0.18 33.56174709080367 -0.36080608617373855 6.792229352193331 0 0 0
133 1 2 0.06 33.32272548638536 -1.4249206345063286 6.7901864124833935 0 0 0
134 1 2 0.06 34.63441725469498 -0.26183046060567605 6.968858112790784 0 0 0
135 1 2 0.06 33.03647756985253 0.07330646743361058 7.643016134287606 0 0 0
127 1 1 -0.12 33.597042417972794 1.7746897989590522 5.444572025103497 0 0 0
33 1 2 0.06 -11.705914370849712 4.703574758992346 6.86884839920377 1 0 0
22 1 1 -0.12 -9.20857432371427 4.271839931896793 6.335714439122739 1 0 0
23 1 2 0.06 -9.93022523043334 3.5044132124678313 6.617560138813133 1 0 0
24 1 2 0.06 -8.35171088214421 4.089215781878423 6.9875508026582125 1 0 0
17 1 2 0.06 -8.152582587672846 2.0314424044163175 5.504021751097689 1 0 0
126 1 2 0.06 32.120884405573356 2.465530962074716 6.896139469580909 0 0 0
123 1 2 0.06 32.498715372266744 4.506563907563063 5.835144060906217 0 0 0
115 1 1 -0.06 33.71100975058862 5.059659407255559 7.559134541419404 0 0 0
116 1 2 0.06 32.929183159804936 4.926940079081817 8.309713016771838 0 0 0
117 1 1 -0.18 35.070904324130325 4.684521623049903 8.216796921090534 0 0 0
121 1 1 -0.12 33.38513082509791 4.138115170378313 6.355741897057179 0 0 0
122 1 2 0.06 34.205453121092106 4.240605068796761 5.642681237525352 0 0 0
124 1 1 -0.12 33.170572437139235 2.6379544041926692 6.651235190245558 0 0 0
125 1 2 0.06 33.74020451057772 2.321468050711779 7.52224441721539 0 0 0
118 1 2 0.06 35.11892409538456 3.6383731026481456 8.512805286667849 0 0 0
120 1 2 0.06 35.91196258707117 4.870926063015084 7.547127344927262 0 0 0
54 1 2 0.06 -18.70614455867367 8.226742974970513 7.094051087556842 1 0 0
46 1 1 -0.12 -15.627082110722354 8.203758809212026 7.353126735755723 1 0 0
47 1 2 0.06 -16.07017668714952 7.213078882190388 7.471067615294828 1 0 0
53 1 2 0.06 -17.894661885004226 8.35085245459804 8.616375443627255 1 0 0
48 1 2 0.06 -15.267153728101587 8.481990146276694 8.34508358719114 1 0 0
52 1 1 -0.12 -18.093864286245992 8.901397993931063 7.695218240351494 1 0 0
34 1 1 -0.12 -12.148615992614872 6.670199883642482 6.170004670842765 1 0 0
37 1 1 -0.12 -13.60225068087188 6.79467619281742 6.7244833663731285 1 0 0
38 1 2 0.06 -14.174330373018627 5.903397346192762 6.460778624320113 1 0 0
39 1 2 0.06 -13.527008769517805 6.769446519023319 7.812651899561068 1 0 0
40 1 1 -0.06 -14.430428093436468 8.065954892633044 6.367242475273933 1 0 0
32 1 2 0.06 -11.377724985227925 5.9164301435650515 8.054718881567211 1 0 0
36 1 2 0.06 -11.64182328530173 7.632956372256629 6.210501062763676 1 0 0
31 1 1 -0.12 -11.270134204825236 5.695759656617184 6.991514072687458 1 0 0
25 1 1 -0.06 -9.753662288496233 5.708203594340716 6.588462137045248 1 0 0
26 1 2 0.06 -9.608995164721705 6.319413067739127 5.6960578827787955 1 0 0
27 1 1 -0.18 -8.934828935056338 6.327845407614191 7.746209566960168 1 0 0
28 1 2 0.06 -9.280085585501702 7.338889089174188 7.965115541590379 1 0 0
30 1 2 0.06 -7.873755165848181 6.396389008356508 7.4981579416429085 1 0 0
29 1 2 0.06 -9.02374026800356 5.744325276711805 8.663716859552416 1 0 0
106 1 1 -0.12 34.69057918487714 8.8736752601366 7.060317663818232 0 0 0
108 1 2 0.06 35.47168142926094 8.653240964983937 6.331978977655297 0 0 0
109 1 1 -0.12 34.389808754850876 7.610932674544465 7.891165879257208 0 0 0
110 1 2 0.06 33.7838076413845 7.854722768908147 8.764831701567303 0 0 0
111 1 2 0.06 35.34961810227378 7.258524634548294 8.26603316452637 0 0 0
112 1 1 -0.12 33.641460166715 6.534045546374458 7.068204620511999 0 0 0
113 1 2 0.06 34.08420986246833 6.55888710817819 6.070898293311835 0 0 0
114 1 2 0.06 32.59991537022533 6.829307884838485 6.924961950287084 0 0 0
83 1 2 0.06 -27.611104130283824 10.084619417335162 8.574649488287356 1 0 0
69 1 2 0.06 -22.95537282252708 9.54153221448999 8.825225693770093 1 0 0
71 1 2 0.06 -23.720205915927295 12.215492901079429 8.885024895379182 1 0 0
78 1 2 0.06 -25.26207516387852 10.488865932779525 8.260351653645607 1 0 0
62 1 2 0.06 -20.583288926466523 8.991508518898883 8.658690912389773 1 0 0
61 1 1 -0.12 -20.441110002884017 9.878033630607263 8.038318649949929 1 0 0
63 1 2 0.06 -20.766247066231582 9.57703317719345 7.040855668226548 1 0 0
65 1 2 0.06 -21.774763623222963 11.549339372054824 7.714553533347548 1 0 0
55 1 1 -0.06 -18.904119867861144 10.18200949993733 8.034387294078257 1 0 0
56 1 2 0.06 -18.720592151532166 10.92903638519391 7.260069509013256 1 0 0
64 1 1 -0.12 -21.402198731479977 10.981063532960867 8.56795593324864 1 0 0
49 1 1 -0.12 -16.770939975076143 9.15795493369194 6.91925592077974 1 0 0
50 1 2 0.06 -16.434232328878537 10.183498946222564 7.075716391455543 1 0 0
51 1 2 0.06 -16.963974003110458 9.065992102661795 5.8495091332919955 1 0 0
42 1 1 -0.18 -13.592977954863729 9.36579837713343 6.346731818768177 1 0 0
43 1 2 0.06 -12.85004936582946 9.36099171195729 5.548617002607813 1 0 0
44 1 2 0.06 -14.223833983011028 10.236980326877827 6.170444318547972 1 0 0
45 1 2 0.06 -13.070513462225023 9.521587709534842 7.291451715428444 1 0 0
100 1 1 -0.06 35.02705878912525 10.117633412609557 7.931684272852586 0 0 0
102 1 1 -0.18 34.05715374524906 11.254154708909653 7.5250546690167965 0 0 0
103 1 2 0.06 33.01398669764414 10.97239342652577 7.681795981791126 0 0 0
104 1 2 0.06 34.23821035413385 12.150760664094257 8.118920775382257 0 0 0
105 1 2 0.06 34.17347738191058 11.526078920305139 6.474882890888473 0 0 0
107 1 2 0.06 33.80370535722411 9.079560688361745 6.457620495116537 0 0 0
91 1 1 -0.12 38.89851571010975 10.57807448749574 8.65122815816828 0 0 0
92 1 2 0.06 39.179147741571256 9.57828853186846 8.315458134062979 0 0 0
93 1 2 0.06 39.07442502908573 11.228120362022722 7.792271216969027 0 0 0
97 1 1 -0.12 36.49709918476705 10.617542136997187 7.71657366686911 0 0 0
98 1 2 0.06 36.51601004479555 11.647649015644063 7.35655501311733 0 0 0
99 1 2 0.06 36.985398290020726 10.046338870590212 6.926468733997098 0 0 0
206 1 2 0.06 17.556210469736996 -6.122975717699632 10.722675137308606 0 0 0
205 1 1 -0.06 18.163100898516007 -5.644859592949786 9.951175180242146 0 0 0
207 1 1 -0.18 18.557739387228125 -6.748608967413865 8.943963189876015 0 0 0
199 1 1 -0.12 20.68700595905601 -5.8176586118878255 10.873458424168533 0 0 0
200 1 2 0.06 20.516940683510548 -6.583291621516413 11.631555322141324 0 0 0
201 1 2 0.06 20.927823849971446 -6.348455344392384 9.953428675130588 0 0 0
209 1 2 0.06 19.098583092245455 -7.560523129944954 9.43072968879234 0 0 0
190 1 1 -0.06 23.296618433753515 -5.593601381163669 10.765730655141105 0 0 0
191 1 2 0.06 23.155676781863335 -6.656398414477501 10.56097980781611 0 0 0
192 1 1 -0.18 24.30350616358475 -5.490460401799069 11.936738685842776 0 0 0
193 1 2 0.06 25.268709201435584 -5.92936026941198 11.676737667063847 0 0 0
218 1 2 0.06 14.71719675464984 -3.550156419274124 9.083523974777655 0 0 0
211 1 1 -0.12 17.30063947557997 -4.543208474453852 9.268533152788763 0 0 0
212 1 2 0.06 16.882040401881163 -3.9178737981300635 10.058921485935805 0 0 0
204 1 2 0.06 19.08396762647792 -4.517635269350709 11.575266644915274 0 0 0
202 1 1 -0.12 19.401489959171386 -4.972054315990327 10.635394182047968 0 0 0
203 1 2 0.06 19.710236090495982 -4.134601445359497 10.008819432710396 0 0 0
189 1 2 0.06 23.290107625866916 -4.045987048105136 9.216947593066166 0 0 0
196 1 1 -0.12 21.93739107130648 -4.95783925345642 11.216965965614662 0 0 0
197 1 2 0.06 21.834892829164197 -3.9527845320543484 10.807705267045058 0 0 0
198 1 2 0.06 21.927482695849235 -4.802177863560107 12.297108666799076 0 0 0
187 1 1 -0.12 23.922511350071325 -4.876511497953615 9.531141376130421 0 0 0
188 1 2 0.06 24.8879979517935 -4.42626092555053 9.77082757649444 0 0 0
194 1 2 0.06 24.480802293114827 -4.453626966081639 12.226018798715899 0 0 0
119 1 2 0.06 35.24091465033685 5.249053689701135 9.133536838933843 0 0 0
79 1 1 -0.12 -26.453564859214055 11.296423129603085 9.894310736382849 1 0 0
80 1 2 0.06 -26.563161625922348 12.273481572070729 9.423600168959183 1 0 0
81 1 2 0.06 -26.382794097735697 11.468645357709235 10.968214440168886 1 0 0
82 1 1 -0.12 -27.703740238107038 10.414759434730115 9.610095322763726 1 0 0
84 1 2 0.06 -27.63151043486472 9.498416272620595 10.19862955928295 1 0 0
85 1 1 -0.06 -29.134451570928483 11.030671472276374 9.804190007979464 1 0 0
67 1 1 -0.12 -22.59184073056813 10.407686482766643 9.380751943286526 1 0 0
68 1 2 0.06 -22.23651523860041 10.001984718632016 10.3297312290495 1 0 0
70 1 1 -0.06 -23.792375490223236 11.383304873502084 9.587259828755542 1 0 0
72 1 1 -0.18 -23.723908871069412 11.948697592352552 11.019258279797832 1 0 0
74 1 2 0.06 -23.92242071074257 11.177812146859708 11.7648058872808 1 0 0
75 1 2 0.06 -22.73538504684358 12.36234529892122 11.226471978958926 1 0 0
76 1 1 -0.12 -25.15126068018941 10.651285604860242 9.333788454888264 1 0 0
77 1 2 0.06 -25.085004827552112 9.654389670056702 9.77280425615789 1 0 0
66 1 2 0.06 -20.884518051383452 11.704878252013884 9.194028403872196 1 0 0
59 1 2 0.06 -18.725253345250664 10.123024170415164 10.2177830533643 1 0 0
60 1 2 0.06 -18.72622142974471 11.759077766801354 9.559542278593412 1 0 0
57 1 1 -0.18 -18.39031618249853 10.738243026335915 9.38187503331563 1 0 0
58 1 2 0.06 -17.299296165571306 10.763734365228053 9.409774963183928 1 0 0
101 1 2 0.06 34.853803574120604 9.901265312867281 8.987092463543483 0 0 0
94 1 1 -0.12 37.381506301172536 10.53164152306092 8.983768001063801 0 0 0
86 1 2 0.06 39.44321877143416 10.613495380324565 10.732521259082326 0 0 0
95 1 2 0.06 37.17124931062318 9.609296781026394 9.52729236345116 0 0 0
96 1 2 0.06 37.10279504903218 11.34587039986959 9.653352677534556 0 0 0
87 1 1 -0.18 -29.161690359189446 12.564417198996622 9.961020917643864 1 0 0
88 1 2 0.06 -28.55967501506098 12.887045026272418 10.811331219680199 1 0 0
90 1 2 0.06 -28.781543261883556 13.06591334410765 9.07071677306093 1 0 0
73 1 2 0.06 -24.443255676388322 12.754608222797572 11.168211771042834 1 0 0
89 1 2 0.06 38.7969886371113 12.926984181913774 10.133328799946973 0 0 0
195 1 2 0.06 23.93614924196698 -6.021197899887017 12.815904192151699 0 0 0

Velocities

270 0.0001092503521232485 7.704381713607445e-06 -8.377616423843237e-06
267 8.032005043127396e-06 1.5143997635755796e-05 6.100316262816274e-06
269 -3.96627079421986e-05 1.1095352098775059e-05 -1.835473840969025e-06
285 3.81034733724545e-05 7.207897123276435e-06 7.93069096530346e-06
275 0.0001249737886964038 -3.8769279095206914e-05 4.1847312647415696e-06
268 -8.208126143243916e-05 2.5918860050300422e-05 -9.762039469028932e-06
271 -6.846753557286326e-05 -1.1479177349809895e-05 1.57549636575764e-05
273 -0.00010951326884788762 8.536877655161606e-06 2.2594184287481628e-05
265 3.811459835040775e-05 2.3420297658498055e-05 1.5349538718593035e-05
281 4.66351419196934e-05 -3.093216374417412e-05 3.511278331114813e-05
266 0.00016782789453603138 -1.2468482645979748e-05 4.483907123787323e-05
259 3.817498594422476e-05 1.8725053451627528e-05 8.176586945659184e-06
260 -1.4387762454740372e-05 1.3950184406644072e-05 6.288570260892066e-06
263 -0.0001985539095573734 1.5380251154374013e-05 -6.571861372154767e-05
290 0.0001305213583785815 -6.4632937204187745e-06 -8.091047670974162e-05
284 0.00019064047330614214 7.26275186969825e-05 -4.438435578797882e-05
280 3.431904244984382e-05 -3.1603461196786e-05 3.483995284807698e-05
282 6.913272013296863e-05 1.5231689449702524e-05 -6.947870454629009e-07
283 -1.3608230999842584e-06 9.654389223556618e-06 -1.3197973086981485e-06
277 -8.414045550147094e-05 -1.790965306739763e-05 -1.0885166354306637e-05
274 5.993997664354891e-05 2.6263375692800053e-06 3.347843358835996e-06
261 0.00016438406395894353 4.0786099495809485e-05 6.47091625721898e-05
276 0.00013841030478189379 -2.6365893527965436e-05 -1.3404617479199561e-05
272 -0.00014281720668172436 7.368509354013417e-06 1.517796524260307e-05
278 -0.00010432540934575341 1.5925376433404085e-05 -1.2732481903245213e-05
256 -3.196906909016424e-05 -1.3079128271890588e-05 -4.204681557026363e-06
258 3.880023931386866e-05 -1.5966698067971927e-06 -8.956253214830595e-06
262 -8.906344742688703e-05 1.567650611375475e-05 -1.6912259976127042e-05
264 -0.0001668399382679528 2.829473189042353e-05 -4.083098206447438e-05
257 -0.00014930791886506544 -3.749858375729282e-05 -5.237584938439993e-05
293 0.000126339178567018 -1.4215410590332801e-05 -3.897600709158206e-05
292 7.0956099839479686e-06 -9.135607813275344e-06 1.0859383642641786e-05
294 -9.389913210920711e-05 2.1263054627760865e-05 3.0117915263397258e-05
288 0.00010512024721518665 -2.5346170968793404e-05 -4.068981396383523e-05
289 1.0213018595389687e-05 1.4763008608548814e-05 -2.1019309887589398e-05
286 -9.91129353818334e-06 -2.0695394618257817e-05 1.2997365552125255e-05
287 -0.00013936461357137115 7.556938796230401e-06 7.277946774725819e-05
291 -0.00012162962058106902 3.585423814951917e-06 2.697654599292033e-05
279 -0.00020856898121616093 3.068828848687015e-05 -3.5538926760832914e-06
253 0.00022546485821827583 -5.15452051292698e-05 -5.416367961611873e-05
254 8.995305793226192e-05 2.2768957394946544e-05 7.620625808810721e-06
244 1.9906379109879718e-05 1.7445622044425436e-05 -1.45116143437647e-06
250 -5.1969836650228325e-06 3.0143748268620804e-05 3.2656053748015235e-05
251 -2.7883113487617413e-05 3.031645918609108e-05 3.31913474592362e-05
245 -1.0417503863473958e-05 1.7709928153085946e-05 3.2848374686777164e-06
252 9.873642794318506e-05 -4.636426067565464e-06 -1.1177079092049906e-05
248 -0.00023713529441625678 -4.8658573935107435e-05 -6.924829932177944e-05
161 0.00012341142305352136 2.7723447202163964e-05 1.8183330278630782e-06
255 5.165962530513506e-05 -6.663712879588755e-06 -2.855487859107349e-05
247 -9.459063871937667e-05 -9.108389759782283e-06 -6.298954845731067e-06
249 -6.29019335623303e-05 -1.6073646974589892e-05 -2.4694363226523906e-05
246 0.00012021551407451204 3.079670086677633e-05 1.2940089534098927e-05
243 -7.274641384627285e-05 -3.498368588063206e-05 -1.9119453175206644e-05
164 3.9978897875624114e-05 3.8780021310510974e-06 1.9843223915720177e-05
146 0.00014779678978502347 3.055009923991372e-05 -1.1780463974103042e-05
151 -7.682293628467391e-05 1.9722530904582505e-05 5.217991706224117e-06
154 5.018389032648862e-05 2.115221111390347e-06 2.2183842695393383e-05
155 0.00010786991705720432 1.992499887621223e-05 -1.8723801540666685e-05
156 0.00011419687116548528 2.1529244010598853e-05 1.0048961071092683e-05
145 2.1363755397065228e-05 -1.602255331312326e-05 -3.3383319798116947e-06
153 -0.00013764296810291703 3.888452904296954e-07 1.2678224334755168e-05
147 -4.686760326238224e-05 -1.0746164083517142e-05 2.179295808334272e-05
148 6.876135756130188e-05 -7.75693844019331e-06 -1.4752479119497749e-05
150 -0.00014459063538241982 -2.3793204441046412e-05 5.599732458073962e-05
149 -9.249696683007164e-05 -5.16434402645701e-06 4.3969154768815025e-05
5 5.961489045677816e-05 3.535750795209062e-05 -4.33111123670561e-05
1 0.00010714601852156844 -2.7422273767391162e-05 -1.8961449577827518e-05
2 0.00024292977683347997 -3.0120257718397746e-05 -8.288472148689546e-05
302 0.0001430255917934718 -1.4170451369693864e-05 -1.689561894959327e-05
301 5.254472183733962e-05 -3.368063805813915e-06 -5.589323313532716e-06
303 0.0001543632653636421 -2.0015342046223706e-05 -2.554938867972977e-05
297 -3.843271244640444e-06 2.8371288970762304e-05 2.4295130338179384e-05
298 -4.854444693621411e-05 3.652160974166171e-05 6.0501989787041935e-05
299 8.116789201618923e-05 2.7781405347231428e-05 3.640946322143457e-08
295 -7.344156580809184e-05 3.7401797892735094e-05 2.041888123603348e-05
300 -4.447647581717982e-05 3.593607078970649e-05 2.6843126863939757e-05
304 -2.7097777847293858e-05 -2.7746316313014113e-06 7.154782391804314e-06
296 -9.753399443991808e-05 3.494484784190418e-05 1.1294058328880097e-05
306 -0.000192459116248349 -8.921565650507097e-05 -6.507133484322292e-05
305 -6.89052612080612e-05 -2.966373679646994e-05 -7.309927706983897e-06
308 8.029380559930154e-06 -2.8524919387769644e-05 2.8473188444217318e-06
3 6.727104041373173e-05 -2.74866413089418e-05 -1.4159380408617664e-05
307 -1.0061686224886196e-05 -2.3213613944715707e-05 8.637579725635041e-06
239 0.00013658066957959118 3.307740702934042e-05 -4.4547372741310716e-05
238 -6.337621059479598e-05 -2.931175410895239e-06 3.2495704257888544e-05