ITEM: TIMESTEP
0
ITEM: NUMBER OF ATOMS
300
ITEM: BOX BOUNDS pp pp pp
3.3234600000000000e+01 9.9703800000000001e+01
3.3234600000000000e+01 9.9703800000000001e+01
3.3234600000000000e+01 9.9703800000000001e+01
ITEM: ATOMS id mol type x y z ix iy iz
206 28 3 39.6842 35.5657 33.8497 0 0 0
139 19 2 88.0166 35.8138 33.5001 -1 0 0
141 19 3 87.9833 35.8572 34.6635 -1 0 0
138 19 1 89.3966 36.4137 33.3005 -1 0 0
142 19 2 90.4634 36.1419 34.3891 -1 0 0
144 19 3 90.0843 35.4512 35.1812 -1 0 0
145 19 2 91.8119 35.6291 33.9013 -1 0 0
146 19 3 92.29 35.1881 34.7782 -1 0 0
149 20 3 90.782 33.7843 33.3139 -1 0 0
151 21 4 94.8233 36.001 34.2023 -1 0 0
205 28 3 40.1179 37.2218 33.4693 0 0 0
124 17 1 86.9503 39.0293 33.5157 -1 0 0
125 17 2 87.2505 39.8025 34.842 -1 0 0
126 17 3 86.4547 39.5995 35.5359 -1 0 0
128 17 2 86.174 37.7178 33.6244 -1 0 0
130 17 3 86.0114 37.3759 34.6474 -1 0 0
114 15 2 88.9708 40.4871 36.6447 -1 0 0
117 15 2 88.7313 39.5185 35.4621 -1 0 0
118 15 3 88.7154 38.4734 35.8197 -1 0 0
119 16 2 89.8428 39.8049 34.4669 -1 0 0
121 16 3 90.7391 39.385 35.019 -1 0 0
122 16 3 89.7219 39.303 33.5213 -1 0 0
143 19 3 90.6003 37.0569 34.9034 -1 0 0
155 21 3 92.6668 37.6024 33.8504 -1 0 0
127 17 3 87.2297 40.8775 34.548 -1 0 0
116 15 3 88.854 41.4572 36.2462 -1 0 0
120 16 3 89.8244 40.8871 34.1643 -1 0 0
7 1 2 93.8201 88.4167 36.1383 -1 -1 0
8 1 3 94.3698 87.5244 35.9804 -1 -1 0
10 1 3 92.8336 88.2046 36.555 -1 -1 0
4 1 2 94.7143 89.4332 36.8702 -1 -1 0
5 1 3 94.5621 90.3488 36.271 -1 -1 0
6 1 3 95.7821 89.3141 36.7928 -1 -1 0
9 1 3 93.7125 88.8639 35.1619 -1 -1 0
53 7 4 88.1093 33.547 38.7662 -1 0 0
54 7 1 87.9822 34.0605 39.8615 -1 0 0
38 4 3 91.5747 33.2482 38.7249 -1 0 0
58 7 2 88.8032 35.2464 40.3275 -1 0 0
61 7 2 89.8592 35.7121 39.3122 -1 0 0
62 7 3 90.4161 34.7905 39.4086 -1 0 0
63 8 2 89.4801 36.0004 37.8271 -1 0 0
64 8 3 88.7609 35.289 37.3373 -1 0 0
66 8 3 90.3437 36.0587 37.2231 -1 0 0
69 9 2 90.9187 36.7722 39.8045 -1 0 0
67 9 4 92.5672 35.0684 40.291 -1 0 0
100 13 2 86.4419 39.7785 40.5291 -1 0 0
102 13 3 85.8155 40.3024 39.8061 -1 0 0
103 13 2 87.4959 38.8405 39.8082 -1 0 0
104 13 3 88.1171 38.3255 40.5501 -1 0 0
105 14 2 86.7017 37.8104 39.0752 -1 0 0
106 14 3 87.2537 36.9801 38.7809 -1 0 0
107 14 3 86.0588 38.2325 38.3731 -1 0 0
108 14 3 85.9449 37.3954 39.7508 -1 0 0
110 15 1 87.9589 40.4008 37.7868 -1 0 0
111 15 2 88.5397 39.6868 39.0216 -1 0 0
65 8 3 89.0056 36.9681 37.6594 -1 0 0
70 9 3 91.3986 37.2494 38.9396 -1 0 0
71 9 3 90.4911 37.4873 40.4303 -1 0 0
112 15 3 89.4612 39.0869 38.8266 -1 0 0
113 15 3 88.9627 40.3535 39.6816 -1 0 0
115 15 3 90.0077 40.4511 37.0236 -1 0 0
109 15 4 87.0294 41.2037 37.8903 -1 0 0
16 1 2 91.9025 91.7486 38.2432 -1 -1 0
17 1 3 91.598 90.9853 37.5482 -1 -1 0
18 1 3 91.8318 91.4422 39.2978 -1 -1 0
23 2 3 89.4544 91.3562 37.8601 -1 -1 0
1 1 2 94.2309 89.6597 38.3262 -1 -1 0
2 1 3 94.6939 88.9674 38.962 -1 -1 0
3 1 3 93.1944 89.3914 38.3625 -1 -1 0
11 1 2 94.3257 91.1048 38.7873 -1 -1 0
12 1 3 95.3173 91.4376 38.6331 -1 -1 0
13 1 3 94.1572 91.0798 39.858 -1 -1 0
14 1 1 93.3688 92.1397 38.1364 -1 -1 0
19 1 2 91.0142 92.9208 38.088 -1 -1 0
20 1 3 91.1554 93.1198 37.0622 -1 -1 0
21 2 2 89.607 92.3953 38.0985 -1 -1 0
22 2 3 89.1384 92.56 39.0891 -1 -1 0
24 2 3 88.9194 92.7814 37.4206 -1 -1 0
25 3 4 90.8853 95.7664 37.3958 -1 -1 0
26 3 1 91.4519 95.4486 38.4074 -1 -1 0
27 3 2 91.1648 94.088 39.1143 -1 -1 0
28 3 3 90.3474 94.1055 39.8455 -1 -1 0
29 3 3 91.9474 93.8086 39.8663 -1 -1 0
15 1 4 93.8129 92.8485 37.2493 -1 -1 0
49 6 2 86.2174 97.7483 39.7564 -1 -1 0
50 6 3 86.1336 96.6586 39.8787 -1 -1 0
51 6 3 85.2367 98.2037 39.5087 -1 -1 0
52 6 3 86.8611 97.857 38.8091 -1 -1 0
33 3 2 91.8256 97.8242 39.5354 -1 -1 0
35 4 2 91.4522 98.7195 38.339 -1 -1 0
36 4 3 92.1539 98.5474 37.4481 -1 -1 0
37 4 3 90.4836 98.5001 37.9578 -1 -1 0
39 5 4 89.0955 96.9235 39.3028 -1 -1 0
40 5 1 89.343 97.4238 40.3877 -1 -1 0
30 3 2 92.4834 96.4458 39.0486 -1 -1 0
31 3 3 92.8925 96.1312 40.0058 -1 -1 0
32 3 3 93.3562 96.6636 38.502 -1 -1 0
34 3 3 92.7652 98.2836 39.9566 -1 -1 0
55 7 2 87.0221 33.4537 40.8954 -1 0 0
56 7 3 86.0766 33.9458 40.8365 -1 0 0
57 7 3 87.3384 33.873 41.8872 -1 0 0
59 7 3 88.0836 36.0666 40.6313 -1 0 0
60 7 3 89.3021 34.9519 41.3039 -1 0 0
68 9 1 92.046 36.1246 40.6321 -1 0 0
75 9 2 91.9657 36.6923 43.2386 -1 0 0
79 10 3 91.6132 34.5912 43.2328 -1 0 0
84 11 3 89.8115 36.5331 42.7352 -1 0 0
73 9 3 93.5925 36.8245 41.8322 -1 0 0
77 10 2 92.3343 35.2462 43.598 -1 0 0
78 10 3 93.24 34.9535 43.1167 -1 0 0
86 11 2 88.5354 38.8475 43.7388 -1 0 0
88 11 3 87.8812 38.2968 43.0472 -1 0 0
89 11 2 88.1137 40.3611 43.6518 -1 0 0
99 13 3 86.0261 39.8595 43.0483 -1 0 0
101 13 3 85.8249 39.1792 41.1179 -1 0 0
81 11 4 90.8004 39.4201 43.2721 -1 0 0
82 11 1 90.0037 38.4895 43.5198 -1 0 0
83 11 2 90.4139 36.9958 43.492 -1 0 0
72 9 2 92.5222 37.0114 41.8127 -1 0 0
74 9 3 92.5654 38.0813 41.607 -1 0 0
76 9 3 92.3841 37.3813 43.9309 -1 0 0
95 13 4 87.6202 41.7927 40.9988 -1 0 0
96 13 1 86.9741 40.8598 41.4254 -1 0 0
97 13 2 86.7407 40.658 42.9051 -1 0 0
98 13 3 86.3024 41.6565 43.2999 -1 0 0
90 11 3 88.911 40.9681 43.1519 -1 0 0
44 5 2 88.2444 97.72 41.4471 -1 -1 0
46 5 3 87.95 96.8041 41.9493 -1 -1 0
47 5 2 86.9179 98.4375 41.0179 -1 -1 0
48 5 3 86.2099 98.2721 41.8061 -1 -1 0
41 5 2 90.8282 97.7658 40.7177 -1 -1 0
42 5 3 90.7939 98.832 41.0967 -1 -1 0
43 5 3 91.2304 97.142 41.4795 -1 -1 0
45 5 3 88.7995 98.3941 42.1824 -1 -1 0
85 11 3 90.0956 36.6136 44.5024 -1 0 0
80 10 3 92.3369 35.1493 44.6249 -1 0 0
87 11 3 88.2915 38.5076 44.7569 -1 0 0
93 12 3 87.4887 40.3146 45.8799 -1 0 0
91 12 2 87.9556 40.9328 45.0778 -1 0 0
94 12 3 87.2339 41.7414 44.9157 -1 0 0
92 12 3 88.9248 41.2351 45.4219 -1 0 0
289 40 3 54.8878 91.6844 84.7923 0 -1 -1
277 39 4 52.9656 89.896 87.9061 0 -1 -1
278 39 1 53.3927 90.7859 88.6023 0 -1 -1
282 39 2 54.7517 91.3519 88.2732 0 -1 -1
285 39 2 54.9036 92.0756 86.9194 0 -1 -1
287 40 2 54.5711 91.152 85.7429 0 -1 -1
288 40 3 55.0546 90.1832 85.7924 0 -1 -1
290 40 3 53.4541 91.1123 85.6978 0 -1 -1
284 39 3 55.4458 90.5215 88.2422 0 -1 -1
291 41 2 54.1405 93.3827 86.7823 0 -1 -1
292 41 3 53.1894 93.2635 86.2999 0 -1 -1
293 41 3 53.8273 93.6668 87.7729 0 -1 -1
294 41 2 54.8978 94.5124 86.1918 0 -1 -1
295 41 3 54.6595 94.4988 85.1351 0 -1 -1
297 42 2 54.7148 95.8635 86.8514 0 -1 -1
298 42 3 53.692 96.0033 87.1564 0 -1 -1
300 42 3 55.2988 95.9588 87.7489 0 -1 -1
286 39 3 56.0067 92.3191 86.9745 0 -1 -1
296 41 3 55.9763 94.3049 86.1361 0 -1 -1
299 42 3 54.9756 96.6767 86.1112 0 -1 -1
230 31 3 46.2501 33.3447 92.039 0 0 -1
264 37 1 50.6457 92.0543 92.0683 0 -1 -1
274 38 3 51.1353 89.121 91.8248 0 -1 -1
281 39 3 51.531 91.4019 89.1157 0 -1 -1
268 37 2 52.1633 91.5714 92.2496 0 -1 -1
271 37 2 52.6544 90.7502 91.0012 0 -1 -1
272 37 3 53.7219 90.6859 91.1276 0 -1 -1
273 38 2 52.0658 89.2677 91.1427 0 -1 -1
275 38 3 52.0133 88.7282 90.2502 0 -1 -1
276 38 3 52.905 88.8119 91.6584 0 -1 -1
279 39 2 52.5034 91.4055 89.606 0 -1 -1
283 39 3 55.0857 92.0341 89.0633 0 -1 -1
263 37 4 50.372 92.7881 91.1166 0 -1 -1
280 39 3 52.7376 92.4653 89.6994 0 -1 -1
239 33 3 48.7672 99.3432 92.2979 0 -1 -1
180 25 1 35.4886 36.8725 94.5693 0 0 -1
181 25 2 34.0072 36.5879 94.2987 0 0 -1
182 25 3 33.9777 35.5872 93.9636 0 0 -1
184 25 2 36.5079 36.2987 93.6291 0 0 -1
186 25 3 36.1324 35.2854 93.1824 0 0 -1
187 25 2 37.849 35.8218 94.1714 0 0 -1
188 25 3 38.2505 35.3886 93.3395 0 0 -1
189 26 2 37.8088 34.5282 94.956 0 0 -1
190 26 3 38.8438 34.1369 95.1509 0 0 -1
191 26 3 37.1763 33.8053 94.599 0 0 -1
192 26 3 37.2991 34.8815 95.8547 0 0 -1
195 27 2 38.8019 36.8973 94.6541 0 0 -1
197 27 3 39.7584 36.6552 94.2775 0 0 -1
214 29 3 41.4982 34.3396 95.3682 0 0 -1
221 31 4 43.7811 34.0932 93.245 0 0 -1
223 31 2 43.8223 33.4761 95.5337 0 0 -1
224 31 3 43.6641 34.5332 95.8615 0 0 -1
222 31 1 44.4207 33.572 94.1518 0 0 -1
229 31 2 46.7994 33.3408 93.0705 0 0 -1
231 32 2 47.1752 34.8032 93.1262 0 0 -1
232 32 3 47.4407 35.1238 94.1823 0 0 -1
233 32 3 46.3444 35.3821 93.0028 0 0 -1
234 32 3 47.9834 35.0355 92.4587 0 0 -1
235 33 4 49.0876 33.4021 94.9907 0 0 -1
174 23 3 98.5454 36.6693 94.9056 -1 0 -1
178 24 3 33.682 38.9747 95.6538 0 0 -1
179 25 4 35.8009 37.5974 95.5424 0 0 -1
183 25 3 33.7184 37.2788 93.4449 0 0 -1
185 25 3 36.6257 37.0323 92.8421 0 0 -1
196 27 3 38.6026 37.7875 94.0764 0 0 -1
173 23 2 99.4036 37.0251 95.4202 -1 0 -1
175 24 2 99.2511 38.4772 95.3688 -1 0 -1
176 24 3 98.8873 38.8621 94.4146 -1 0 -1
259 36 2 47.8238 92.2009 94.7606 0 -1 -1
261 36 3 47.7438 91.0839 95.0975 0 -1 -1
262 36 3 47.0065 92.2398 94.0681 0 -1 -1
265 37 2 49.5846 91.5817 93.0451 0 -1 -1
266 37 3 49.9641 90.6758 93.4889 0 -1 -1
267 37 3 48.7868 91.4243 92.3516 0 -1 -1
269 37 3 52.3082 90.9911 93.1409 0 -1 -1
260 36 3 47.5573 92.9514 95.6273 0 -1 -1
249 35 4 51.3737 95.1592 94.861 0 -1 -1
250 35 1 50.3527 94.5558 95.196 0 -1 -1
251 35 2 49.1269 95.2097 95.7687 0 -1 -1
253 35 3 48.3652 95.1813 94.9809 0 -1 -1
254 35 2 50.3154 93.0257 94.9695 0 -1 -1
255 35 3 50.2737 92.5505 95.9912 0 -1 -1
256 35 3 51.2141 92.7347 94.5756 0 -1 -1
257 35 2 49.1028 92.6119 94.051 0 -1 -1
258 35 3 48.8891 93.487 93.4163 0 -1 -1
270 37 3 52.7102 92.5517 92.4808 0 -1 -1
213 29 3 40.5138 99.3593 95.8013 0 -1 -1
215 29 2 42.519 99.0871 95.7038 0 -1 -1
216 29 3 42.3122 98.7406 94.7122 0 -1 -1
226 31 2 45.6905 99.1508 93.9572 0 -1 -1
227 31 3 46.0562 98.8487 94.9762 0 -1 -1
228 31 3 45.3912 98.2183 93.4783 0 -1 -1
238 33 3 47.8215 97.9556 92.7918 0 -1 -1
236 33 1 48.9398 98.8483 94.3412 0 -1 -1
237 33 2 48.1107 98.9455 93.0592 0 -1 -1
240 33 2 49.589 97.4727 94.6388 0 -1 -1
241 33 3 50.7039 97.6272 94.5834 0 -1 -1
242 33 3 49.2785 96.8559 93.7954 0 -1 -1
171 23 3 33.9093 36.5951 97.2952 0 0 -1
198 27 2 40.0795 36.766 97.0694 0 0 -1
201 27 2 39.554 35.8178 98.1955 0 0 -1
202 27 3 38.5088 36.1436 98.332 0 0 -1
203 28 2 40.2027 36.155 99.5563 0 0 -1
209 29 2 39.7378 34.3035 97.9665 0 0 -1
210 29 3 39.5773 33.7347 98.8718 0 0 -1
211 29 3 38.9633 33.8985 97.4158 0 0 -1
199 27 3 40.7959 36.224 96.4794 0 0 -1
204 28 3 41.278 35.8971 99.5924 0 0 -1
207 29 4 42.1436 34.0901 98.3104 0 0 -1
208 29 1 41.1895 33.8947 97.564 0 0 -1
212 29 2 41.384 33.5201 96.0847 0 0 -1
131 17 2 86.7449 36.4546 99.3477 -1 0 -1
132 17 3 85.9047 35.7454 99.4165 -1 0 -1
133 18 2 87.0045 36.6931 97.8664 -1 0 -1
135 18 3 86.1224 36.8914 97.2112 -1 0 -1
136 18 3 87.4732 35.839 97.4337 -1 0 -1
140 19 3 88.0586 34.8097 99.5802 -1 0 -1
147 20 2 91.7163 34.3505 99.4973 -1 0 -1
148 20 3 91.7222 34.5174 98.4261 -1 0 -1
150 20 3 92.599 33.7372 99.6893 -1 0 -1
152 21 1 94.1726 36.3935 99.6131 -1 0 -1
153 21 2 92.7047 36.7279 99.7031 -1 0 -1
156 21 2 94.9499 36.6608 98.3467 -1 0 -1
157 21 3 94.2176 36.7979 97.5686 -1 0 -1
159 21 2 95.9712 35.565 97.8481 -1 0 -1
161 22 2 95.3919 34.2184 97.9377 -1 0 -1
162 22 3 94.2835 34.0361 97.8747 -1 0 -1
163 22 3 95.716 33.8696 98.9489 -1 0 -1
164 22 3 95.7538 33.44 97.1661 -1 0 -1
160 21 3 96.1065 35.7795 96.8015 -1 0 -1
166 23 1 98.3487 36.6906 97.7281 -1 0 -1
167 23 2 97.4613 35.6185 98.3686 -1 0 -1
168 23 3 97.6218 35.7255 99.3983 -1 0 -1
169 23 3 97.9515 34.658 98.1452 -1 0 -1
170 23 2 99.5071 36.2781 96.7734 -1 0 -1
172 23 3 99.4325 35.2441 96.6998 -1 0 -1
193 27 4 38.1031 38.1976 96.5792 0 0 -1
194 27 1 38.8428 37.2817 96.1755 0 0 -1
200 27 3 40.5295 37.6664 97.4732 0 0 -1
123 17 4 87.143 39.6044 98.902 -1 0 -1
129 17 3 85.1841 37.889 99.6993 -1 0 -1
134 18 3 87.5517 37.595 97.6817 -1 0 -1
137 19 4 89.61 37.1403 98.8079 -1 0 -1
154 21 3 92.2755 36.9885 98.7714 -1 0 -1
158 21 3 95.4759 37.6608 98.3544 -1 0 -1
165 23 4 98.2606 37.8126 98.2216 -1 0 -1
177 24 3 98.4596 38.846 96.0719 -1 0 -1
252 35 3 48.8398 94.5894 96.6162 0 -1 -1
217 30 2 42.7793 97.7762 96.5817 0 -1 -1
218 30 3 41.9314 97.2106 96.8053 0 -1 -1
219 30 3 43.1343 97.9833 97.6206 0 -1 -1
220 30 3 43.6108 97.2941 96.1045 0 -1 -1
225 31 3 44.5948 99.5977 96.2231 0 -1 -1
247 34 3 47.1598 96.9939 96.3592 0 -1 -1
243 33 2 49.2842 96.7508 96.0512 0 -1 -1
244 33 3 50.2038 96.9598 96.671 0 -1 -1
245 34 2 48.099 97.2641 96.856 0 -1 -1
246 34 3 48.0765 98.3273 96.896 0 -1 -1
248 34 3 48.1034 96.9823 97.8872 0 -1 -1
ITEM: TIMESTEP
1000
ITEM: NUMBER OF ATOMS
300
ITEM: BOX BOUNDS pp pp pp
3.2713088969991745e+01 1.0022531103000796e+02
3.3234600000000000e+01 9.9703800000000001e+01
3.3234600000000000e+01 9.9703800000000001e+01
ITEM: ATOMS id mol type x y z ix iy iz
206 28 3 39.995 36.5733 99.2455 0 0 -1
139 19 2 89.2502 36.1376 34.1298 -1 0 0
141 19 3 88.8769 36.6132 35.0926 -1 0 0
138 19 1 90.6396 36.549 33.743 -1 0 0
142 19 2 91.8765 35.8493 34.3909 -1 0 0
144 19 3 91.64 34.913 34.9342 -1 0 0
145 19 2 93.0577 35.396 33.5405 -1 0 0
146 19 3 93.7353 35.0011 34.2957 -1 0 0
149 20 3 91.6362 33.7511 99.2856 -1 0 -1
151 21 4 95.953 36.0243 33.566 -1 0 0
205 28 3 40.0506 37.6033 97.941 0 0 -1
124 17 1 88.0693 39.1267 33.251 -1 0 0
125 17 2 87.7693 40.1395 34.3942 -1 0 0
126 17 3 86.8241 39.9292 34.8126 -1 0 0
128 17 2 87.3143 37.7655 33.2219 -1 0 0
130 17 3 86.7534 37.6005 34.139 -1 0 0
114 15 2 88.5726 40.8292 36.7419 -1 0 0
117 15 2 88.9225 40.0985 35.4538 -1 0 0
118 15 3 89.208 39.0653 35.6911 -1 0 0
119 16 2 90.3248 40.6412 34.9561 -1 0 0
121 16 3 91.1294 40.4166 35.6479 -1 0 0
122 16 3 90.6202 40.0895 34.1343 -1 0 0
143 19 3 92.1828 36.4912 35.1629 -1 0 0
155 21 3 93.4912 37.4938 99.7102 -1 0 -1
127 17 3 87.6133 41.1621 34.0081 -1 0 0
116 15 3 88.5352 41.8192 36.4813 -1 0 0
120 16 3 90.1502 41.6141 34.5392 -1 0 0
7 1 2 93.2269 87.7098 36.299 -1 -1 0
8 1 3 93.0602 86.944 37.0363 -1 -1 0
10 1 3 92.4107 88.375 36.2081 -1 -1 0
4 1 2 94.5395 88.4673 36.6433 -1 -1 0
5 1 3 94.5403 89.3732 36.0521 -1 -1 0
6 1 3 95.3351 87.8094 36.2501 -1 -1 0
9 1 3 93.5216 87.1748 35.3813 -1 -1 0
53 7 4 88.5958 33.8258 38.4891 -1 0 0
54 7 1 88.9411 34.2246 39.5892 -1 0 0
38 4 3 90.6281 99.1578 37.6992 -1 -1 0
58 7 2 89.7263 35.4878 39.8136 -1 0 0
61 7 2 91.2309 35.479 39.4582 -1 0 0
62 7 3 91.5459 34.4723 39.6044 -1 0 0
63 8 2 91.3785 35.9358 37.9827 -1 0 0
64 8 3 90.5247 35.5496 37.2932 -1 0 0
66 8 3 92.2671 35.5084 37.5569 -1 0 0
69 9 2 92.1664 36.3954 40.3472 -1 0 0
67 9 4 91.7551 35.1714 42.3782 -1 0 0
100 13 2 86.5437 40.8369 40.6697 -1 0 0
102 13 3 86.6581 41.6342 39.9979 -1 0 0
103 13 2 86.433 39.5178 39.871 -1 0 0
104 13 3 86.6408 38.8168 40.6431 -1 0 0
105 14 2 84.9517 39.3912 39.4213 -1 0 0
106 14 3 84.8327 38.4454 38.919 -1 0 0
107 14 3 84.5973 40.2072 38.8148 -1 0 0
108 14 3 84.2532 39.2009 40.2771 -1 0 0
110 15 1 87.3001 40.2917 37.4568 -1 0 0
111 15 2 87.4417 39.3578 38.6554 -1 0 0
65 8 3 91.4414 36.9939 37.9101 -1 0 0
70 9 3 93.176 36.1771 40.0614 -1 0 0
71 9 3 91.9621 37.4223 40.1165 -1 0 0
112 15 3 87.2852 38.3441 38.2436 -1 0 0
113 15 3 88.4538 39.3973 39.0306 -1 0 0
115 15 3 89.4393 40.8883 37.3785 -1 0 0
109 15 4 86.1866 40.6155 37.1024 -1 0 0
16 1 2 93.3061 91.5107 38.6126 -1 -1 0
17 1 3 92.7107 90.6142 38.5154 -1 -1 0
18 1 3 93.1476 91.8278 39.6234 -1 -1 0
23 2 3 90.7656 91.2063 37.3737 -1 -1 0
1 1 2 94.7278 88.7525 38.1625 -1 -1 0
2 1 3 95.2638 87.8962 38.5563 -1 -1 0
3 1 3 93.782 88.7226 38.6704 -1 -1 0
11 1 2 95.4933 90.0203 38.5989 -1 -1 0
12 1 3 96.5274 90.0036 38.2908 -1 -1 0
13 1 3 95.52 89.7561 39.6505 -1 -1 0
14 1 1 94.8168 91.3774 38.3647 -1 -1 0
19 1 2 92.5884 92.5714 37.6662 -1 -1 0
20 1 3 92.9833 92.4354 36.6745 -1 -1 0
21 2 2 91.0785 92.2307 37.6495 -1 -1 0
22 2 3 90.4569 92.8103 38.4322 -1 -1 0
24 2 3 90.6768 92.6871 36.7489 -1 -1 0
25 3 4 91.263 95.1463 36.726 -1 -1 0
26 3 1 92.2853 95.1904 37.3754 -1 -1 0
27 3 2 92.7525 93.9783 38.2453 -1 -1 0
28 3 3 92.3745 94.0814 39.2736 -1 -1 0
29 3 3 93.84 94.0265 38.2798 -1 -1 0
15 1 4 95.4729 92.2743 37.8319 -1 -1 0
49 6 2 87.2638 97.7069 39.9575 -1 -1 0
50 6 3 86.9287 96.7587 40.3377 -1 -1 0
51 6 3 86.3456 98.244 39.9399 -1 -1 0
52 6 3 87.6791 97.5925 38.9403 -1 -1 0
33 3 2 92.2754 97.6274 38.1726 -1 -1 0
35 4 2 91.2045 98.3382 37.251 -1 -1 0
36 4 3 91.7039 98.8069 36.3862 -1 -1 0
37 4 3 90.4705 97.6464 36.9104 -1 -1 0
39 5 4 89.8591 96.0298 39.2703 -1 -1 0
40 5 1 90.3098 96.98 39.8656 -1 -1 0
30 3 2 93.0852 96.5339 37.4908 -1 -1 0
31 3 3 93.9117 96.3402 38.2044 -1 -1 0
32 3 3 93.454 96.8162 36.5148 -1 -1 0
34 3 3 93.0226 98.2865 38.449 -1 -1 0
55 7 2 88.4112 33.4379 40.8693 -1 0 0
56 7 3 87.4029 33.8208 41.0842 -1 0 0
57 7 3 88.9716 33.8698 41.7365 -1 0 0
59 7 3 89.1259 36.2989 39.2955 -1 0 0
60 7 3 89.5963 35.7402 40.8831 -1 0 0
68 9 1 92.0167 36.2674 41.8819 -1 0 0
75 9 2 91.4873 37.7093 44.1161 -1 0 0
79 10 3 92.5285 36.2316 45.4134 -1 0 0
84 11 3 89.8397 36.1891 43.7079 -1 0 0
73 9 3 93.3969 37.5223 42.811 -1 0 0
77 10 2 92.3709 37.2956 45.3441 -1 0 0
78 10 3 93.3427 37.7557 45.4568 -1 0 0
86 11 2 87.9778 38.8445 44.2065 -1 0 0
88 11 3 86.9581 38.4709 43.9995 -1 0 0
89 11 2 88.0829 40.4291 44.2455 -1 0 0
99 13 3 86.1906 40.8175 43.3152 -1 0 0
101 13 3 85.6224 41.1152 41.0654 -1 0 0
81 11 4 88.9043 38.0356 42.1263 -1 0 0
82 11 1 89.047 38.0968 43.3496 -1 0 0
83 11 2 90.0264 37.1584 44.1303 -1 0 0
72 9 2 92.3061 37.5545 42.7153 -1 0 0
74 9 3 92.0913 38.4672 42.1118 -1 0 0
76 9 3 91.3669 38.8042 44.2239 -1 0 0
95 13 4 88.7461 41.1978 41.3565 -1 0 0
96 13 1 87.6326 40.855 41.7183 -1 0 0
97 13 2 87.1957 41.1222 43.1887 -1 0 0
98 13 3 87.1951 42.2702 43.3629 -1 0 0
90 11 3 89.1117 40.6581 44.0416 -1 0 0
44 5 2 89.6321 97.5486 41.0651 -1 -1 0
46 5 3 89.4128 96.7313 41.6699 -1 -1 0
47 5 2 88.3059 98.3104 40.9034 -1 -1 0
48 5 3 87.827 98.0713 41.8645 -1 -1 0
41 5 2 91.7542 97.3365 39.593 -1 -1 0
42 5 3 92.0117 98.0454 40.2924 -1 -1 0
43 5 3 92.3962 96.5525 40.0247 -1 -1 0
45 5 3 90.3429 98.1161 41.758 -1 -1 0
85 11 3 89.7441 37.1578 45.1804 -1 0 0
80 10 3 91.8894 37.5497 46.2904 -1 0 0
87 11 3 88.1362 38.522 45.2298 -1 0 0
93 12 3 86.8152 40.7157 45.8905 -1 0 0
91 12 2 87.8586 40.9868 45.6424 -1 0 0
94 12 3 88.0681 42.0732 45.7381 -1 0 0
92 12 3 88.3503 40.4054 46.3435 -1 0 0
289 40 3 54.8645 90.8143 85.0462 0 -1 -1
277 39 4 52.1291 90.3573 88.0913 0 -1 -1
278 39 1 52.73 91.2414 88.7215 0 -1 -1
282 39 2 54.1667 91.6741 88.2471 0 -1 -1
285 39 2 54.2868 91.9579 86.7825 0 -1 -1
287 40 2 54.4881 90.6293 86.0681 0 -1 -1
288 40 3 55.2543 90.1142 86.616 0 -1 -1
290 40 3 53.5301 90.1571 86.0138 0 -1 -1
284 39 3 54.8864 90.917 88.5376 0 -1 -1
291 41 2 53.2945 92.9302 86.1463 0 -1 -1
292 41 3 53.253 92.6163 85.0719 0 -1 -1
293 41 3 52.3372 92.8355 86.5112 0 -1 -1
294 41 2 53.7449 94.4005 86.105 0 -1 -1
295 41 3 54.8126 94.4021 85.9563 0 -1 -1
297 42 2 53.1054 95.3548 85.1077 0 -1 -1
298 42 3 53.1069 95.1224 84.0294 0 -1 -1
300 42 3 52.0525 95.3168 85.3955 0 -1 -1
286 39 3 55.2043 92.5002 86.6225 0 -1 -1
296 41 3 53.5087 94.7888 87.1216 0 -1 -1
299 42 3 53.4534 96.4098 85.2684 0 -1 -1
230 31 3 44.8775 34.1261 93.1924 0 0 -1
264 37 1 50.4592 92.0975 92.5879 0 -1 -1
274 38 3 51.6123 89.1953 92.0494 0 -1 -1
281 39 3 51.0413 92.0325 89.6844 0 -1 -1
268 37 2 51.918 91.7129 92.4695 0 -1 -1
271 37 2 52.2791 90.9891 91.1012 0 -1 -1
272 37 3 53.3803 90.9329 91.2702 0 -1 -1
273 38 2 51.6477 89.5605 90.9484 0 -1 -1
275 38 3 50.6453 89.6569 90.6265 0 -1 -1
276 38 3 52.0402 88.9243 90.1896 0 -1 -1
279 39 2 52.0978 91.9003 89.9339 0 -1 -1
283 39 3 54.4111 92.5762 88.7581 0 -1 -1
263 37 4 49.9795 93.0134 91.9576 0 -1 -1
280 39 3 52.4323 92.8892 90.1467 0 -1 -1
239 33 3 46.7193 33.1512 92.2307 0 0 -1
180 25 1 35.8122 37.5217 95.6036 0 0 -1
181 25 2 34.7759 36.3682 95.7953 0 0 -1
182 25 3 35.057 35.8347 96.6972 0 0 -1
184 25 2 36.1745 38.0552 94.2122 0 0 -1
186 25 3 35.1685 38.1278 93.5997 0 0 -1
187 25 2 37.1379 37.1896 93.3143 0 0 -1
188 25 3 36.9585 37.7356 92.3161 0 0 -1
189 26 2 36.58 35.8326 92.9295 0 0 -1
190 26 3 37.1211 35.646 91.9738 0 0 -1
191 26 3 35.6212 35.8935 92.5702 0 0 -1
192 26 3 36.6817 35.0314 93.6471 0 0 -1
195 27 2 38.7179 37.1262 93.7422 0 0 -1
197 27 3 39.1438 36.2984 93.1692 0 0 -1
214 29 3 39.4868 98.9666 96.4331 0 -1 -1
221 31 4 42.7699 99.148 93.5117 0 -1 -1
223 31 2 42.1685 99.7388 95.7985 0 -1 -1
224 31 3 41.4101 33.8611 95.2775 0 0 -1
222 31 1 43.1624 99.3342 94.6528 0 -1 -1
229 31 2 45.5316 33.7727 94.0126 0 0 -1
231 32 2 46.1914 35.0098 94.6398 0 0 -1
232 32 3 46.8957 34.8168 95.5537 0 0 -1
233 32 3 45.5308 35.7509 94.9969 0 0 -1
234 32 3 46.7649 35.5874 93.9551 0 0 -1
235 33 4 48.5162 99.5491 94.5721 0 -1 -1
174 23 3 100.207 35.8736 95.9868 -1 0 -1
178 24 3 32.9671 38.5755 94.5608 0 0 -1
179 25 4 36.1524 38.144 96.6334 0 0 -1
183 25 3 34.9736 35.6753 94.9029 0 0 -1
185 25 3 36.5617 39.0722 94.3018 0 0 -1
196 27 3 39.2572 38.0155 93.3799 0 0 -1
173 23 2 33.2314 36.8019 95.8519 0 0 -1
175 24 2 100.349 37.5005 94.5702 -1 0 -1
176 24 3 33.383 36.9738 93.7638 0 0 -1
259 36 2 47.7734 91.5938 95.3409 0 -1 -1
261 36 3 48.2982 90.9568 96.1482 0 -1 -1
262 36 3 47.1888 90.9128 94.7836 0 -1 -1
265 37 2 49.5765 91.4407 93.6463 0 -1 -1
266 37 3 50.034 90.7458 94.2839 0 -1 -1
267 37 3 48.8909 90.7217 93.1818 0 -1 -1
269 37 3 52.1394 91.2146 93.4056 0 -1 -1
260 36 3 47.0378 92.2686 95.8915 0 -1 -1
249 35 4 50.6548 95.4899 94.8123 0 -1 -1
250 35 1 49.6917 94.8272 95.1695 0 -1 -1
251 35 2 48.6553 95.4499 96.11 0 -1 -1
253 35 3 47.679 94.9763 96.0197 0 -1 -1
254 35 2 49.752 93.3224 95.3723 0 -1 -1
255 35 3 49.6017 93.062 96.4167 0 -1 -1
256 35 3 50.7419 93.0221 95.206 0 -1 -1
257 35 2 48.7402 92.4416 94.4998 0 -1 -1
258 35 3 48.1933 93.0949 93.8462 0 -1 -1
270 37 3 52.4549 92.702 92.539 0 -1 -1
213 29 3 39.7146 97.7585 97.5875 0 -1 -1
215 29 2 41.5168 98.4681 96.5871 0 -1 -1
216 29 3 41.371 97.6292 95.8824 0 -1 -1
226 31 2 44.6745 99.3846 94.9906 0 -1 -1
227 31 3 44.8438 33.3903 95.977 0 0 -1
228 31 3 45.1574 98.3928 95.0809 0 -1 -1
238 33 3 46.1216 98.3204 93.044 0 -1 -1
236 33 1 47.8092 98.7284 93.9601 0 -1 -1
237 33 2 46.5366 99.285 93.2489 0 -1 -1
240 33 2 47.8846 97.2116 94.3377 0 -1 -1
241 33 3 48.4878 96.6481 93.6006 0 -1 -1
242 33 3 46.9746 96.7016 94.2088 0 -1 -1
171 23 3 33.1524 38.5937 97.0428 0 0 -1
198 27 2 39.3492 35.7259 95.8891 0 0 -1
201 27 2 39.0398 35.768 97.3962 0 0 -1
202 27 3 38.0959 36.2852 97.5218 0 0 -1
203 28 2 40.1015 36.5624 98.1836 0 0 -1
209 29 2 38.849 34.3369 98.0162 0 0 -1
210 29 3 38.3886 34.4868 98.9812 0 0 -1
211 29 3 38.0716 33.9313 97.4324 0 0 -1
199 27 3 38.7653 35.0139 95.3352 0 0 -1
204 28 3 41.1294 36.26 97.9581 0 0 -1
207 29 4 40.8992 33.6601 99.0221 0 0 -1
208 29 1 40.0063 33.3376 98.3018 0 0 -1
212 29 2 40.142 98.6987 97.258 0 -1 -1
131 17 2 88.1603 36.396 99.5034 -1 0 -1
132 17 3 87.3634 35.6923 33.2659 -1 0 0
133 18 2 88.5742 36.1995 98.0738 -1 0 -1
135 18 3 87.784 36.5527 97.3288 -1 0 -1
136 18 3 88.6394 35.0983 97.9812 -1 0 -1
140 19 3 89.3349 35.0789 34.2863 -1 0 0
147 20 2 92.6801 34.1316 99.1337 -1 0 -1
148 20 3 92.9991 34.3019 98.0845 -1 0 -1
150 20 3 93.2922 99.7232 99.3204 -1 -1 -1
152 21 1 95.1781 36.2825 99.0428 -1 0 -1
153 21 2 93.734 36.5369 99.2362 -1 0 -1
156 21 2 95.7543 36.3012 97.6398 -1 0 -1
157 21 3 95.0962 35.7321 96.9116 -1 0 -1
159 21 2 97.1614 35.5996 97.4468 -1 0 -1
161 22 2 97.1279 34.0976 97.7568 -1 0 -1
162 22 3 96.2825 33.769 97.2201 -1 0 -1
163 22 3 97.0509 33.865 98.7906 -1 0 -1
164 22 3 97.9862 33.6562 97.29 -1 0 -1
160 21 3 97.3282 35.6585 96.3518 -1 0 -1
166 23 1 98.7941 37.5086 97.2786 -1 0 -1
167 23 2 98.3488 36.345 98.1126 -1 0 -1
168 23 3 98.1518 36.6418 99.152 -1 0 -1
169 23 3 99.1115 35.6167 98.0477 -1 0 -1
170 23 2 32.7995 37.6128 97.0947 0 0 -1
172 23 3 33.2153 37.1901 97.9934 0 0 -1
193 27 4 39.384 38.1708 95.6997 0 0 -1
194 27 1 39.1712 37.0967 95.2077 0 0 -1
200 27 3 40.4078 35.5421 95.7129 0 0 -1
123 17 4 88.6841 39.5602 98.7231 -1 0 -1
129 17 3 86.5256 37.9371 98.9618 -1 0 -1
134 18 3 89.5279 36.6746 97.7573 -1 0 -1
137 19 4 90.7683 37.6607 99.694 -1 0 -1
154 21 3 93.2982 36.7109 98.2547 -1 0 -1
158 21 3 95.7987 37.3926 97.4097 -1 0 -1
165 23 4 97.9397 38.2834 96.8464 -1 0 -1
177 24 3 99.2854 37.3749 94.2213 -1 0 -1
252 35 3 48.8175 95.2866 97.1641 0 -1 -1
217 30 2 42.497 97.7524 97.56 0 -1 -1
218 30 3 42.0535 96.9867 98.2613 0 -1 -1
219 30 3 42.9042 98.5369 98.256 0 -1 -1
220 30 3 43.2514 97.2669 96.9033 0 -1 -1
225 31 3 42.6433 33.9467 96.5071 0 0 -1
247 34 3 46.3795 97.2556 96.801 0 -1 -1
243 33 2 48.4415 97.0136 95.8217 0 -1 -1
244 33 3 49.3544 97.5393 96.0185 0 -1 -1
245 34 2 47.4118 97.6126 96.8744 0 -1 -1
246 34 3 47.4573 98.6829 96.7242 0 -1 -1
248 34 3 47.7737 97.5258 97.8475 0 -1 -1
ITEM: TIMESTEP
2000
ITEM: NUMBER OF ATOMS
300
ITEM: BOX BOUNDS pp pp pp
3.2077146712782664e+01 1.0086125328721718e+02
3.3234600000000000e+01 9.9703800000000001e+01
3.3234600000000000e+01 9.9703800000000001e+01
ITEM: ATOMS id mol type x y z ix iy iz
139 19 2 90.632 35.9439 33.8452 -1 0 0
141 19 3 89.8582 35.7403 34.6223 -1 0 0
132 17 3 89.2731 35.7724 98.7754 -1 0 -1
140 19 3 91.047 35.0012 33.6391 -1 0 0
138 19 1 91.8254 36.7786 34.3706 -1 0 0
142 19 2 92.9899 35.9152 34.8582 -1 0 0
144 19 3 92.6461 34.8963 35.0711 -1 0 0
145 19 2 94.1122 35.6802 33.8275 -1 0 0
143 19 3 93.3478 36.181 35.8097 -1 0 0
146 19 3 94.8989 35.1362 34.3729 -1 0 0
151 21 4 97.1715 36.4528 33.7171 -1 0 0
124 17 1 89.5782 39.1499 33.351 -1 0 0
125 17 2 88.6665 39.9627 34.3449 -1 0 0
126 17 3 87.6756 39.5364 34.2934 -1 0 0
130 17 3 88.2952 37.3814 33.4418 -1 0 0
117 15 2 89.2047 40.0879 35.7898 -1 0 0
118 15 3 89.4887 39.1084 36.1435 -1 0 0
121 16 3 90.8731 41.0044 36.8088 -1 0 0
122 16 3 91.2622 40.395 35.3262 -1 0 0
155 21 3 94.9366 37.6974 34.2639 -1 0 0
114 15 2 88.1657 40.7059 36.8194 -1 0 0
127 17 3 88.6356 40.9621 33.9273 -1 0 0
116 15 3 87.6802 41.6177 36.4515 -1 0 0
119 16 2 90.4741 40.9263 35.7798 -1 0 0
120 16 3 90.4138 41.8757 35.2272 -1 0 0
10 1 3 95.353 86.8009 35.0536 -1 -1 0
7 1 2 95.9621 86.8324 35.9054 -1 -1 0
4 1 2 95.6387 88.1676 36.6248 -1 -1 0
6 1 3 96.2135 88.0174 37.5802 -1 -1 0
9 1 3 97.0614 86.8428 35.5939 -1 -1 0
5 1 3 96.0672 89.043 36.1513 -1 -1 0
20 1 3 93.0739 91.9144 37.3194 -1 -1 0
24 2 3 90.946 92.9958 38.0781 -1 -1 0
25 3 4 92.6112 93.8659 35.8174 -1 -1 0
36 4 3 92.0955 96.5719 34.1392 -1 -1 0
32 3 3 94.5093 95.709 35.4249 -1 -1 0
53 7 4 90.1307 33.514 38.4341 -1 0 0
54 7 1 90.0378 33.8516 39.6294 -1 0 0
59 7 3 89.7907 35.8656 39.0232 -1 0 0
58 7 2 90.1094 35.3537 39.9677 -1 0 0
61 7 2 91.4287 35.9477 40.4913 -1 0 0
62 7 3 91.8041 35.2807 41.2396 -1 0 0
63 8 2 92.5069 36.1064 39.4264 -1 0 0
64 8 3 92.6308 35.0762 38.9473 -1 0 0
66 8 3 93.4748 36.4027 39.8248 -1 0 0
69 9 2 91.1967 37.3017 41.2339 -1 0 0
70 9 3 91.1232 38.0363 40.4623 -1 0 0
105 14 2 85.1827 38.8741 39.8509 -1 0 0
106 14 3 85.0797 37.8325 39.9316 -1 0 0
107 14 3 84.7852 39.1383 38.9127 -1 0 0
108 14 3 84.5888 39.3094 40.699 -1 0 0
103 13 2 86.7564 39.2529 39.809 -1 0 0
110 15 1 87.0612 39.7288 37.2093 -1 0 0
111 15 2 87.3925 38.8948 38.4714 -1 0 0
112 15 3 87.0067 37.9031 38.1871 -1 0 0
113 15 3 88.4366 38.9652 38.6467 -1 0 0
65 8 3 92.2104 36.817 38.6239 -1 0 0
71 9 3 90.2411 37.2116 41.7689 -1 0 0
102 13 3 87.445 41.2303 39.3873 -1 0 0
115 15 3 88.7825 40.8124 37.7426 -1 0 0
109 15 4 85.9799 39.6305 36.5662 -1 0 0
8 1 3 95.733 85.9526 36.5468 -1 -1 0
2 1 3 93.6987 87.4597 37.3228 -1 -1 0
17 1 3 93.3655 91.1048 40.0091 -1 -1 0
23 2 3 91.3205 91.5105 38.8959 -1 -1 0
21 2 2 91.65 92.495 38.6661 -1 -1 0
16 1 2 93.946 91.5997 39.2155 -1 -1 0
18 1 3 94.6152 92.2004 39.8091 -1 -1 0
1 1 2 94.1785 88.4028 37.1277 -1 -1 0
3 1 3 93.5611 88.8911 36.4402 -1 -1 0
11 1 2 94.2019 89.09 38.5054 -1 -1 0
12 1 3 94.7145 88.363 39.1994 -1 -1 0
13 1 3 93.1598 89.1721 38.9043 -1 -1 0
14 1 1 94.795 90.5239 38.554 -1 -1 0
15 1 4 95.9987 90.808 38.1852 -1 -1 0
19 1 2 93.1207 92.4734 38.2916 -1 -1 0
22 2 3 91.5228 93.0136 39.6233 -1 -1 0
26 3 1 93.2253 94.4613 36.6713 -1 -1 0
27 3 2 93.6234 93.8918 38.0446 -1 -1 0
28 3 3 93.5355 94.5609 38.8474 -1 -1 0
39 5 4 91.3093 95.9396 38.1622 -1 -1 0
29 3 3 94.6896 93.8206 37.8289 -1 -1 0
49 6 2 89.0786 96.92 40.2954 -1 -1 0
50 6 3 89.1958 95.8087 40.4109 -1 -1 0
51 6 3 88.2451 97.1549 40.9801 -1 -1 0
52 6 3 88.6162 97.2436 39.3466 -1 -1 0
38 4 3 91.4907 98.0645 34.8449 -1 -1 0
33 3 2 93.1055 97.1537 36.0969 -1 -1 0
35 4 2 91.8687 97.0286 35.086 -1 -1 0
37 4 3 90.9917 96.442 35.4064 -1 -1 0
40 5 1 91.7404 97.087 38.4544 -1 -1 0
30 3 2 93.9069 95.8446 36.3431 -1 -1 0
34 3 3 93.7971 97.9797 35.7351 -1 -1 0
41 5 2 92.607 97.8712 37.4582 -1 -1 0
42 5 3 92.0768 98.6813 37.1177 -1 -1 0
43 5 3 93.4183 98.3973 37.9359 -1 -1 0
31 3 3 94.6811 96.0794 37.0875 -1 -1 0
55 7 2 89.9204 99.3595 40.8123 -1 -1 0
56 7 3 88.8657 99.4448 41.1259 -1 -1 0
57 7 3 90.4941 33.3188 41.6388 -1 0 0
67 9 4 93.2317 37.0854 42.5189 -1 0 0
60 7 3 89.3167 35.7116 40.6376 -1 0 0
68 9 1 92.2005 37.6968 42.3533 -1 0 0
84 11 3 89.7878 36.7777 44.4109 -1 0 0
104 13 3 87.257 38.5626 40.5711 -1 0 0
86 11 2 88.0031 39.5484 44.7009 -1 0 0
88 11 3 87.0079 39.1903 44.8259 -1 0 0
89 11 2 87.9536 40.9715 44.0584 -1 0 0
81 11 4 88.1872 37.9098 43.0515 -1 0 0
82 11 1 88.7582 38.4872 43.9367 -1 0 0
75 9 2 91.2769 38.4704 44.6934 -1 0 0
83 11 2 89.8573 37.8107 44.7674 -1 0 0
72 9 2 91.8646 38.9141 43.2855 -1 0 0
74 9 3 91.1442 39.5899 42.8516 -1 0 0
76 9 3 91.1712 39.3494 45.3082 -1 0 0
73 9 3 92.827 39.4524 43.3245 -1 0 0
101 13 3 85.8614 41.1756 40.3961 -1 0 0
100 13 2 86.8773 40.7702 40.2146 -1 0 0
99 13 3 86.378 40.3802 42.9602 -1 0 0
95 13 4 89.0159 40.9365 41.2793 -1 0 0
96 13 1 87.7961 40.9954 41.4037 -1 0 0
97 13 2 87.1385 41.1484 42.7811 -1 0 0
98 13 3 86.5757 42.1587 42.7833 -1 0 0
90 11 3 88.9641 41.1824 43.8676 -1 0 0
46 5 3 92.1565 96.7365 40.4723 -1 -1 0
47 5 2 90.319 97.8206 40.6448 -1 -1 0
48 5 3 90.5666 97.5805 41.708 -1 -1 0
44 5 2 91.6767 97.5294 39.9311 -1 -1 0
45 5 3 92.4248 98.3524 40.1224 -1 -1 0
79 10 3 92.2339 36.5003 45.2584 -1 0 0
87 11 3 88.4555 39.6648 45.6442 -1 0 0
92 12 3 87.8236 41.6642 46.2035 -1 0 0
77 10 2 92.3091 37.5595 45.5214 -1 0 0
85 11 3 89.555 37.8202 45.8147 -1 0 0
80 10 3 92.1343 37.5122 46.634 -1 0 0
78 10 3 93.3363 37.7768 45.3741 -1 0 0
93 12 3 86.4218 41.8224 45.2914 -1 0 0
91 12 2 87.5334 41.8822 45.2227 -1 0 0
94 12 3 87.9366 42.8609 44.9268 -1 0 0
298 42 3 50.8477 94.329 84.4166 0 -1 -1
277 39 4 52.2286 89.9929 88.8441 0 -1 -1