ITEM: TIMESTEP
0
ITEM: NUMBER OF ATOMS
308
ITEM: BOX BOUNDS pp pp pp
0.0000000000000000e+00 6.1964045980000002e+01
0.0000000000000000e+00 6.1964045980000002e+01
0.0000000000000000e+00 6.1964045980000002e+01
ITEM: ATOMS id mol type x y z ix iy iz
29 1 2 32.198 59.5092 17.8925 0 -1 0
84 1 2 38.2027 41.592 21.7528 0 -1 0
81 1 2 40.1423 42.7459 21.3967 0 -1 0
88 1 2 41.5666 40.8114 21.7423 0 -1 0
68 1 2 37.5263 46.2247 21.5134 0 -1 0
72 1 1 39.9819 45.4024 20.4546 0 -1 0
74 1 2 39.1855 44.9277 19.8092 0 -1 0
73 1 2 40.7391 44.6858 20.3353 0 -1 0
75 1 2 40.3617 46.2262 19.9492 0 -1 0
53 1 2 35.3874 50.9613 21.3566 0 -1 0
55 1 1 37.5547 50.4592 21.6939 0 -1 0
57 1 1 38.0355 50.7206 20.2195 0 -1 0
59 1 2 37.5965 50.0393 19.5177 0 -1 0
60 1 2 39.0715 50.5931 19.9921 0 -1 0
62 1 2 36.6132 48.588 21.7215 0 -1 0
64 1 1 38.6629 48.0896 21.5531 0 -1 0
65 1 2 39.6051 48.4946 21.8486 0 -1 0
66 1 2 38.6114 48.0647 20.433 0 -1 0
46 1 1 34.9484 53.441 21.6605 0 -1 0
48 1 2 34.8744 53.1614 20.6303 0 -1 0
50 1 2 37.0985 53.0439 21.4899 0 -1 0
58 1 2 37.8496 51.7176 19.9238 0 -1 0
23 1 2 29.9802 58.2351 20.1095 0 -1 0
31 1 1 32.354 57.2803 20.1224 0 -1 0
32 1 2 32.7351 56.8727 19.158 0 -1 0
33 1 2 31.3544 56.7244 20.3284 0 -1 0
34 1 1 33.1661 56.8918 21.3677 0 -1 0
36 1 2 34.1015 57.4883 21.2512 0 -1 0
37 1 1 33.3531 55.3878 21.4909 0 -1 0
39 1 2 33.1411 54.9494 20.5333 0 -1 0
42 1 1 36.0087 55.8121 21.6186 0 -1 0
45 1 2 35.9953 56.2489 20.6225 0 -1 0
44 1 2 36.9508 55.3058 21.5722 0 -1 0
8 1 2 26.1557 61.1133 21.8169 0 -1 0
16 1 1 28.7492 60.5134 21.0016 0 -1 0
17 1 2 28.1708 59.893 20.3982 0 -1 0
18 1 2 28.6178 61.4954 20.5509 0 -1 0
19 1 1 30.2828 60.2315 20.8919 0 -1 0
20 1 2 30.5861 59.7945 21.8431 0 -1 0
21 1 2 30.921 61.125 20.9022 0 -1 0
22 1 1 30.6612 59.1236 19.8825 0 -1 0
24 1 2 30.294 59.3545 18.9341 0 -1 0
25 1 1 32.0955 58.7671 20.0042 0 -1 0
26 1 2 32.6978 59.2448 20.7595 0 -1 0
27 1 1 32.8258 59.3173 18.7631 0 -1 0
28 1 2 33.5822 58.6989 18.3504 0 -1 0
30 1 2 33.3028 60.2182 19.0246 0 -1 0
1 1 1 25.2697 0.576893 24.2692 0 0 0
2 1 2 24.2321 0.287134 24.1272 0 0 0
3 1 2 25.2881 1.38645 23.5885 0 0 0
9 1 2 27.2847 0.472519 22.2699 0 0 0
195 1 2 25.9782 21.4391 25.2202 0 -1 0
118 1 2 33.3871 34.647 25.1828 0 -1 0
119 1 2 34.8489 35.6168 25.174 0 -1 0
101 1 2 39.1337 35.8831 25.267 0 -1 0
86 1 2 39.3641 39.7122 22.2842 0 -1 0
91 1 1 39.1841 39.7988 24.3556 0 -1 0
92 1 2 38.0816 39.7898 24.4502 0 -1 0
94 1 1 39.6964 38.3246 24.5519 0 -1 0
95 1 2 39.1838 37.6793 23.8296 0 -1 0
89 1 2 41.8088 39.5504 22.8229 0 -1 0
96 1 2 40.7785 38.2999 24.3186 0 -1 0
79 1 1 39.7144 42.9302 22.4055 0 -1 0
82 1 1 38.8517 41.7416 22.6099 0 -1 0
83 1 2 38.1216 41.9678 23.3704 0 -1 0
85 1 1 39.6991 40.4372 23.041 0 -1 0
93 1 2 39.6101 40.3454 25.1999 0 -1 0
80 1 2 40.5341 43.0238 23.0845 0 -1 0
87 1 1 41.2662 40.4928 22.7455 0 -1 0
90 1 2 41.8184 41.1622 23.438 0 -1 0
67 1 1 38.4045 46.6342 22.0035 0 -1 0
69 1 2 38.0567 46.6787 23.0942 0 -1 0
70 1 1 39.5653 45.5942 21.911 0 -1 0
76 1 1 38.9358 44.2661 22.4881 0 -1 0
77 1 2 38.0259 44.1084 22.0136 0 -1 0
78 1 2 38.8072 44.4535 23.5675 0 -1 0
71 1 2 40.3589 45.9692 22.5417 0 -1 0
54 1 2 35.8171 50.9076 23.0018 0 -1 0
56 1 2 38.3723 51.0041 22.2322 0 -1 0
61 1 1 37.5212 48.9175 22.1422 0 -1 0
63 1 2 37.4299 48.9166 23.1913 0 -1 0
47 1 2 34.0733 52.926 22.0532 0 -1 0
49 1 1 36.2786 52.7165 22.1132 0 -1 0
52 1 1 36.1606 51.1758 22.0163 0 -1 0
51 1 2 36.5858 52.9927 23.127 0 -1 0
35 1 2 32.7511 57.2973 22.2634 0 -1 0
38 1 2 32.6838 54.9396 22.2326 0 -1 0
40 1 1 34.8225 54.9168 21.9686 0 -1 0
41 1 2 34.795 54.8865 23.0865 0 -1 0
43 1 2 36.2286 56.6051 22.2977 0 -1 0
4 1 1 26.2887 61.436 23.9499 0 -1 0
5 1 2 26.9246 61.1881 24.8041 0 -1 0
6 1 2 25.6814 60.5356 23.8298 0 -1 0
7 1 1 26.9447 61.4848 22.582 0 -1 0
10 1 1 28.225 60.5724 22.4832 0 -1 0
11 1 2 29.0302 61.155 23.0071 0 -1 0
12 1 1 28.0971 59.1979 23.1715 0 -1 0
13 1 2 29.0368 58.6664 23.2252 0 -1 0
14 1 2 27.6608 59.1012 24.1983 0 -1 0
15 1 2 27.4916 58.535 22.546 0 -1 0
301 1 1 25.4467 1.00892 25.7464 0 0 0
303 1 2 24.9324 0.368902 26.4836 0 0 0
304 1 2 25.0574 1.96843 25.9687 0 0 0
302 1 2 26.5014 1.07085 25.9706 0 0 0
206 1 2 25.4983 16.1122 28.8846 0 -1 0
202 1 1 26.7663 17.8488 28.313 0 -1 0
204 1 2 27.259 17.2145 27.5874 0 -1 0
191 1 2 24.8336 21.2752 27.7988 0 -1 0
200 1 2 25.2099 18.4868 27.0684 0 -1 0
201 1 2 25.3724 19.3819 28.4542 0 -1 0
190 1 1 25.846 21.5209 27.4136 0 -1 0
196 1 1 26.6327 20.25 27.1644 0 -1 0
197 1 2 27.5753 20.379 27.7303 0 -1 0
198 1 2 27.0586 20.1709 26.1966 0 -1 0
199 1 1 25.948 18.9746 27.6964 0 -1 0
203 1 2 27.4404 18.4424 28.9056 0 -1 0
184 1 1 25.5008 23.4702 29.0362 0 -1 0
185 1 2 24.9945 24.1755 28.4176 0 -1 0
192 1 1 25.4938 22.0562 26.0244 0 -1 0
193 1 2 24.495 22.1633 25.9145 0 -1 0
187 1 1 26.5541 22.5943 28.3219 0 -1 0
188 1 2 27.4349 22.9889 27.8423 0 -1 0
189 1 2 26.9378 22.0601 29.1378 0 -1 0
194 1 2 26.0248 23.0306 25.9772 0 -1 0
133 1 2 28.3719 33.684 28.0824 0 -1 0
124 1 1 32.3235 33.83 27.8396 0 -1 0
125 1 2 31.9104 34.4348 27.0438 0 -1 0
126 1 2 31.9597 32.8496 27.5255 0 -1 0
127 1 1 31.5047 34.2193 29.1216 0 -1 0
132 1 1 29.3589 34.136 27.9995 0 -1 0
134 1 2 29.2232 35.2341 27.9813 0 -1 0
135 1 2 29.8299 33.7909 27.0337 0 -1 0
112 1 1 36.1474 34.6433 27.368 0 -1 0
113 1 2 36.0183 35.1431 28.362 0 -1 0
115 1 1 34.7699 34.0555 26.7795 0 -1 0
116 1 2 34.8375 33.0881 26.1829 0 -1 0
117 1 1 34.1277 35.0716 25.7649 0 -1 0
120 1 2 33.6149 35.8982 26.3563 0 -1 0
121 1 1 33.8135 33.8196 28.0507 0 -1 0
122 1 2 34.0466 34.6812 28.7128 0 -1 0
123 1 2 34.0404 32.8729 28.5778 0 -1 0
100 1 1 39.3066 36.4468 26.2506 0 -1 0
106 1 1 38.2548 35.9553 27.2348 0 -1 0
107 1 2 38.5753 34.9581 27.6923 0 -1 0
109 1 1 36.8633 35.7078 26.599 0 -1 0
110 1 2 36.87 35.2877 25.566 0 -1 0
114 1 2 36.7947 33.7308 27.5526 0 -1 0
102 1 1 40.6393 35.9054 26.7769 0 -1 0
103 1 2 40.9543 34.9947 26.241 0 -1 0
105 1 2 40.7535 35.7599 27.9075 0 -1 0
111 1 2 36.2638 36.6592 26.5121 0 -1 0
97 1 1 39.4549 37.9825 26.0278 0 -1 0
99 1 2 38.6018 38.54 26.3473 0 -1 0
108 1 2 38.2163 36.5802 28.0975 0 -1 0
98 1 2 40.1567 38.3957 26.7011 0 -1 0
104 1 2 41.3746 36.7021 26.5681 0 -1 0
224 1 2 28.4213 12.6758 32.0898 0 -1 0
225 1 2 26.7065 12.9514 32.4475 0 -1 0
207 1 1 25.0932 17.5692 30.206 0 -1 0
208 1 2 24.6832 16.7244 30.7863 0 -1 0
209 1 2 24.2597 17.8877 29.5387 0 -1 0
205 1 1 26.136 16.9049 29.2963 0 -1 0
211 1 1 27.2699 16.2223 30.093 0 -1 0
212 1 2 27.7134 15.5115 29.3688 0 -1 0
213 1 2 28.0161 16.9847 30.2533 0 -1 0
214 1 1 26.997 15.6165 31.4815 0 -1 0
215 1 2 26.2202 16.1683 32.0672 0 -1 0
216 1 2 26.517 14.6874 31.1953 0 -1 0
217 1 1 28.1622 15.4189 32.4292 0 -1 0
218 1 2 28.9333 15.109 31.7909 0 -1 0
210 1 2 25.4037 18.4036 30.7542 0 -1 0
173 1 2 23.4371 25.462 32.1231 0 -1 0
175 1 1 25.1477 24.2555 31.573 0 -1 0
176 1 2 24.3598 23.4836 31.4872 0 -1 0
186 1 2 24.6466 22.8341 29.3792 0 -1 0
178 1 2 27.0129 23.7771 32.7006 0 -1 0
181 1 1 26.0788 24.2958 30.3346 0 -1 0
182 1 2 26.2916 25.3059 30.185 0 -1 0
183 1 2 27.026 23.831 30.5664 0 -1 0
166 1 1 24.5752 28.0736 32.737 0 -1 0
167 1 2 24.8273 28.4062 31.762 0 -1 0
168 1 2 23.5118 27.9512 32.696 0 -1 0
172 1 1 24.4417 25.6672 31.8406 0 -1 0
174 1 2 24.3651 26.3047 30.9956 0 -1 0
170 1 2 26.0873 26.5405 32.725 0 -1 0
158 1 2 24.8676 30.5735 32.3835 0 -1 0
140 1 2 28.3522 32.426 30.8322 0 -1 0
131 1 2 30.058 32.5601 29.3659 0 -1 0
152 1 2 24.8051 32.9637 32.5329 0 -1 0
138 1 2 28.5875 34.9314 30.2859 0 -1 0
139 1 1 28.5767 33.3239 31.5075 0 -1 0
142 1 1 27.1909 33.8498 31.8881 0 -1 0
143 1 2 26.9552 34.8457 31.5212 0 -1 0
144 1 2 26.5631 33.2285 31.2249 0 -1 0
128 1 2 31.4553 35.2935 29.2646 0 -1 0
129 1 2 32.1594 33.8371 29.9014 0 -1 0
130 1 1 30.0679 33.7179 29.2643 0 -1 0
136 1 1 29.3315 34.2706 30.6176 0 -1 0
137 1 2 30.1043 34.8319 31.2133 0 -1 0
141 1 2 29.3284 33.1091 32.3249 0 -1 0
220 1 1 27.9315 14.3085 33.5351 0 -1 0
222 1 1 27.6708 12.942 32.8638 0 -1 0
223 1 2 27.6828 12.0622 33.5851 0 -1 0
229 1 1 28.8473 14.1716 35.9764 0 -1 0
230 1 2 27.7488 14.2432 36.1335 0 -1 0
240 1 2 27.7317 11.3579 36.0745 0 -1 0
226 1 1 29.1962 14.1094 34.4591 0 -1 0
227 1 2 29.775 13.1572 34.3139 0 -1 0
233 1 2 30.2699 12.5601 36.3707 0 -1 0
219 1 2 28.4622 16.337 32.8761 0 -1 0
221 1 2 27.1763 14.7454 34.2025 0 -1 0
228 1 2 29.8583 14.9538 34.3528 0 -1 0
231 1 2 29.21 15.0969 36.415 0 -1 0
177 1 1 25.9389 23.7928 32.8764 0 -1 0
179 1 2 25.8068 24.315 33.815 0 -1 0
180 1 2 25.784 22.7607 33.0979 0 -1 0
160 1 1 24.9143 29.076 33.9235 0 -1 0
161 1 2 24.3617 28.714 34.7727 0 -1 0
169 1 1 25.0153 26.5804 32.9117 0 -1 0
171 1 2 24.6751 26.2513 33.9202 0 -1 0
162 1 1 26.4621 28.8089 34.2735 0 -1 0
163 1 2 27.2044 29.1501 33.5438 0 -1 0
165 1 2 26.6428 27.763 34.4145 0 -1 0
156 1 2 25.3648 31.5279 35.1311 0 -1 0
157 1 1 24.6181 30.4903 33.4364 0 -1 0
159 1 2 23.5638 30.7997 33.546 0 -1 0
154 1 1 25.6043 31.5045 34.0453 0 -1 0
155 1 2 26.5716 31.2221 33.8075 0 -1 0
164 1 2 26.6767 29.2146 35.287 0 -1 0
151 1 1 25.433 32.9287 33.4785 0 -1 0
153 1 2 24.7853 33.3476 34.281 0 -1 0
145 1 1 26.8337 33.6698 33.3835 0 -1 0
146 1 2 27.6424 33.2266 34.0019 0 -1 0
147 1 1 26.6948 35.1048 33.9351 0 -1 0
148 1 2 26.37 34.8681 35.0026 0 -1 0
149 1 2 27.6539 35.6297 33.8354 0 -1 0
150 1 2 25.8464 35.552 33.4454 0 -1 0
239 1 2 27.1238 10.7029 37.5958 0 -1 0
235 1 1 28.6765 12.2679 37.8513 0 -1 0
237 1 1 27.4786 11.6286 37.0669 0 -1 0
238 1 2 26.6646 12.3858 36.9297 0 -1 0
241 1 1 28.3566 12.9677 39.1986 0 -1 0
242 1 2 28.0237 13.9582 39.033 0 -1 0
245 1 2 26.2737 12.4167 39.9289 0 -1 0
246 1 2 27.3713 11.1227 39.845 0 -1 0
232 1 1 29.5827 13.1473 36.9406 0 -1 0
234 1 2 30.1779 13.7708 37.5636 0 -1 0
236 1 2 29.2767 11.4908 38.2441 0 -1 0
243 1 2 29.2805 13.1566 39.6779 0 -1 0
298 1 2 33.7025 3.82052 43.4117 0 -1 0
251 1 2 26.2387 10.9312 42.6367 0 -1 0
252 1 1 27.8928 9.78265 41.9253 0 -1 0
253 1 2 27.9721 8.95551 42.6302 0 -1 0
254 1 2 27.1485 9.38943 41.2312 0 -1 0
255 1 2 28.8681 9.75332 41.4071 0 -1 0
244 1 1 27.316 12.1555 40.1154 0 -1 0
247 1 1 27.5563 12.3405 41.6207 0 -1 0
248 1 2 26.975 13.1703 41.9501 0 -1 0
249 1 2 28.5206 12.6907 41.8643 0 -1 0
250 1 1 27.3494 11.1037 42.5252 0 -1 0
293 1 2 33.5484 3.60245 46.9727 0 -1 0
297 1 1 33.96 3.51076 44.4036 0 -1 0
299 1 2 33.1224 2.84506 44.7965 0 -1 0
300 1 2 34.821 2.92276 44.0959 0 -1 0
289 1 1 32.6846 5.5058 46.9305 0 -1 0
290 1 2 31.7927 4.86302 47.0939 0 -1 0
291 1 2 32.3886 6.18036 46.1177 0 -1 0
292 1 1 33.9264 4.62923 46.7136 0 -1 0
295 1 1 34.4532 4.63287 45.2862 0 -1 0
296 1 2 34.1804 5.57691 44.8417 0 -1 0
305 1 1 35.9695 4.61155 45.4224 0 -1 0
306 1 2 36.186 5.62272 46.0135 0 -1 0
308 1 2 36.4376 4.59249 44.4335 0 -1 0
307 1 2 36.56 3.91225 46.0516 0 -1 0
259 1 1 27.1884 10.6245 45.2246 0 -1 0
260 1 2 26.0123 10.6475 45.332 0 -1 0
261 1 2 27.5072 9.61903 44.9473 0 -1 0
266 1 2 27.8786 8.91815 46.9909 0 -1 0
272 1 2 29.9869 9.99483 47.2069 0 -1 0
256 1 1 27.7909 11.458 44.0282 0 -1 0
257 1 2 27.4713 12.4748 44.3009 0 -1 0
258 1 2 28.8844 11.4829 44.0946 0 -1 0
262 1 1 27.8018 11.048 46.5535 0 -1 0
263 1 2 27.1797 11.8462 46.974 0 -1 0
264 1 2 28.8002 11.47 46.4196 0 -1 0
280 1 1 31.5382 6.83764 49.0399 0 -1 0
281 1 2 31.9565 6.77438 50.0175 0 -1 0
282 1 1 30.3383 5.85515 49.1485 0 -1 0
283 1 2 29.6355 5.93895 48.2668 0 -1 0
284 1 2 30.5658 4.82749 49.2615 0 -1 0
285 1 2 29.7723 5.95186 50.0084 0 -1 0
286 1 1 32.8089 6.46009 48.1409 0 -1 0
288 1 2 33.4846 5.96954 48.8079 0 -1 0
294 1 2 34.7448 4.81517 47.4317 0 -1 0
265 1 1 27.9556 9.89432 47.5252 0 -1 0
267 1 1 26.8618 9.78629 48.5987 0 -1 0
268 1 2 26.8868 10.6146 49.2769 0 -1 0
269 1 2 25.8467 9.87958 48.2425 0 -1 0
270 1 2 26.9374 8.78776 49.0565 0 -1 0
276 1 2 28.9566 7.97812 48.8092 0 -1 0
271 1 1 29.3269 9.99125 48.1452 0 -1 0
274 1 1 29.6549 8.7767 49.106 0 -1 0
275 1 2 29.3622 8.99009 50.177 0 -1 0
277 1 1 31.086 8.28758 48.8868 0 -1 0
278 1 2 31.322 8.52459 47.8372 0 -1 0
279 1 2 31.8058 8.8715 49.3792 0 -1 0
287 1 2 33.3434 7.33477 47.7702 0 -1 0
273 1 2 29.5344 10.9838 48.598 0 -1 0
ITEM: TIMESTEP
1000
ITEM: NUMBER OF ATOMS
308
ITEM: BOX BOUNDS pp pp pp
0.0000000000000000e+00 6.1964045980000002e+01
0.0000000000000000e+00 6.1964045980000002e+01
0.0000000000000000e+00 6.1964045980000002e+01
ITEM: ATOMS id mol type x y z ix iy iz
29 1 2 30.8141 59.1106 18.7385 0 -1 0
84 1 2 38.8021 41.8849 24.7299 0 -1 0
81 1 2 39.6726 42.4372 22.2161 0 -1 0
88 1 2 42.494 42.1105 24.1527 0 -1 0
68 1 2 36.3752 45.9872 21.1367 0 -1 0
72 1 1 38.3402 44.4184 20.5189 0 -1 0
74 1 2 37.4732 43.7334 20.393 0 -1 0
73 1 2 39.1661 43.8144 20.436 0 -1 0
75 1 2 38.365 45.0954 19.7332 0 -1 0
53 1 2 35.134 50.9607 20.949 0 -1 0
55 1 1 36.9388 50.0379 21.7478 0 -1 0
57 1 1 37.9933 50.409 20.6761 0 -1 0
59 1 2 37.4582 50.438 19.6848 0 -1 0
60 1 2 38.7422 49.6404 20.4177 0 -1 0
62 1 2 36.4346 48.1726 20.6715 0 -1 0
64 1 1 37.2192 47.4995 22.5428 0 -1 0
65 1 2 37.1169 47.577 23.6086 0 -1 0
66 1 2 38.3001 47.6922 22.3693 0 -1 0
46 1 1 35.4192 53.381 20.9636 0 -1 0
48 1 2 36.0378 53.4457 20.0587 0 -1 0
50 1 2 37.0549 52.5944 22.152 0 -1 0
58 1 2 38.367 51.4128 20.9186 0 -1 0
23 1 2 30.5828 57.3399 22.054 0 -1 0
31 1 1 32.5198 57.1366 20.0321 0 -1 0
32 1 2 33.144 57.3059 19.1377 0 -1 0
33 1 2 31.7729 56.3413 19.6727 0 -1 0
34 1 1 33.3744 56.4232 21.0651 0 -1 0
36 1 2 33.8144 57.189 21.6491 0 -1 0
37 1 1 34.5986 55.6912 20.4439 0 -1 0
39 1 2 35.2727 56.3913 20.0276 0 -1 0
42 1 1 36.7412 55.2455 21.7725 0 -1 0
45 1 2 37.4055 55.1229 20.8966 0 -1 0
44 1 2 37.2176 54.7115 22.5887 0 -1 0
8 1 2 26.1406 60.728 22.3804 0 -1 0
16 1 1 28.5406 59.3883 22.3953 0 -1 0
17 1 2 28.2753 58.409 22.7189 0 -1 0
18 1 2 27.9883 59.5815 21.4921 0 -1 0
19 1 1 30.0267 59.4698 22.1095 0 -1 0
20 1 2 30.5152 59.5029 23.0708 0 -1 0
21 1 2 30.3202 60.4587 21.665 0 -1 0
22 1 1 30.6045 58.1981 21.3686 0 -1 0
24 1 2 29.8445 57.9608 20.6149 0 -1 0
25 1 1 31.8971 58.4142 20.6003 0 -1 0
26 1 2 32.6753 58.8495 21.2669 0 -1 0
27 1 1 31.5887 59.4026 19.487 0 -1 0
28 1 2 32.4555 59.4976 18.8536 0 -1 0
30 1 2 31.3091 60.3903 19.8424 0 -1 0
1 1 1 25.1728 1.06124 23.0793 0 0 0
2 1 2 24.175 0.71963 23.1494 0 0 0
3 1 2 25.3182 1.14084 21.9951 0 0 0
9 1 2 27.3258 61.7419 21.9622 0 -1 0
195 1 2 28.4796 22.4747 25.4658 0 -1 0
118 1 2 32.3991 37.1663 25.5689 0 -1 0
119 1 2 33.863 37.667 24.7922 0 -1 0
101 1 2 38.115 36.5991 23.5547 0 -1 0
86 1 2 40.6015 40.6696 23.0804 0 -1 0
91 1 1 40.025 39.724 25.0977 0 -1 0
92 1 2 39.3342 40.1034 25.8616 0 -1 0
94 1 1 39.5756 38.5839 24.2272 0 -1 0
95 1 2 38.5037 38.7557 23.9472 0 -1 0
89 1 2 42.7053 40.3699 24.4955 0 -1 0
96 1 2 40.2016 38.476 23.2906 0 -1 0
79 1 1 39.5977 43.0893 23.0794 0 -1 0
82 1 1 39.7562 42.1971 24.3366 0 -1 0
83 1 2 40.172 42.7525 25.1897 0 -1 0
85 1 1 40.5811 40.9375 24.1687 0 -1 0
93 1 2 40.8981 39.412 25.6355 0 -1 0
80 1 2 40.3963 43.7864 22.9848 0 -1 0
87 1 1 42.0211 41.2455 24.6545 0 -1 0
90 1 2 42.0417 41.4903 25.7321 0 -1 0
67 1 1 36.9573 46.024 22.0962 0 -1 0
69 1 2 36.1576 45.6139 22.7594 0 -1 0
70 1 1 38.2344 45.0413 21.9354 0 -1 0
76 1 1 38.2801 43.9083 22.9714 0 -1 0
77 1 2 37.4939 43.2421 22.8933 0 -1 0
78 1 2 38.1133 44.2651 24.0122 0 -1 0
71 1 2 39.131 45.6512 22.0413 0 -1 0
54 1 2 35.0314 50.6372 22.5988 0 -1 0
56 1 2 37.4571 50.0297 22.681 0 -1 0
61 1 1 36.4595 48.5385 21.6787 0 -1 0
63 1 2 35.4477 48.5536 22.0037 0 -1 0
47 1 2 34.4187 53.0702 20.6622 0 -1 0
49 1 1 35.9985 52.435 22.088 0 -1 0
52 1 1 35.7152 51.0149 21.7836 0 -1 0
51 1 2 35.5726 52.6831 23.0213 0 -1 0
35 1 2 32.6975 55.8741 21.748 0 -1 0
38 1 2 34.2128 54.9175 19.7462 0 -1 0
40 1 1 35.3014 54.8108 21.5375 0 -1 0
41 1 2 34.6789 54.7928 22.4196 0 -1 0
43 1 2 36.7637 56.2058 22.2229 0 -1 0
4 1 1 26.2332 0.240596 23.8118 0 0 0
5 1 2 26.9711 0.912645 24.3289 0 0 0
6 1 2 25.7964 61.6233 24.627 0 -1 0
7 1 1 26.9451 61.2758 22.8714 0 -1 0
10 1 1 28.1087 60.4331 23.4714 0 -1 0
11 1 2 28.9567 61.1043 23.6242 0 -1 0
12 1 1 27.7133 59.8757 24.8541 0 -1 0
13 1 2 28.5098 59.176 25.2382 0 -1 0
14 1 2 27.6896 60.6245 25.6726 0 -1 0
15 1 2 26.7897 59.2523 24.6714 0 -1 0
301 1 1 25.0692 2.50039 23.6457 0 0 0
303 1 2 25.182 2.58439 24.7647 0 0 0
304 1 2 24.1463 3.05392 23.4261 0 0 0
302 1 2 25.9498 3.12269 23.3343 0 0 0
206 1 2 26.999 17.3117 29.4822 0 -1 0
202 1 1 27.4731 19.3633 29.7655 0 -1 0
204 1 2 28.5044 18.993 29.6897 0 -1 0
191 1 2 25.743 21.3772 26.6116 0 -1 0
200 1 2 26.3498 19.3209 27.8002 0 -1 0
201 1 2 25.9291 20.5403 28.9512 0 -1 0
190 1 1 26.7067 21.9102 26.7675 0 -1 0
196 1 1 27.5791 21.0499 27.7135 0 -1 0
197 1 2 28.0152 21.6651 28.4555 0 -1 0
198 1 2 28.3961 20.6016 27.1792 0 -1 0
199 1 1 26.7807 20.0256 28.5571 0 -1 0
203 1 2 27.5374 20.1189 30.5847 0 -1 0
184 1 1 25.1232 23.322 28.4254 0 -1 0
185 1 2 24.2771 23.7478 27.8808 0 -1 0
192 1 1 27.3803 22.149 25.3731 0 -1 0
193 1 2 27.4145 21.2787 24.8832 0 -1 0
187 1 1 26.3568 23.2784 27.4877 0 -1 0
188 1 2 26.1244 23.9249 26.688 0 -1 0
189 1 2 27.2577 23.6595 27.89 0 -1 0
194 1 2 26.8036 22.8418 24.7827 0 -1 0
133 1 2 30.0626 31.6709 29.778 0 -1 0
124 1 1 32.4016 34.6352 28.1214 0 -1 0
125 1 2 32.2686 34.0003 27.2644 0 -1 0
126 1 2 33.0147 33.9538 28.7209 0 -1 0
127 1 1 31.0295 34.953 28.8523 0 -1 0
132 1 1 30.4431 32.4553 29.1071 0 -1 0
134 1 2 29.7743 32.5907 28.2469 0 -1 0
135 1 2 31.4701 32.2164 28.8021 0 -1 0
112 1 1 35.5226 36.0679 26.4444 0 -1 0
113 1 2 35.7446 37.1437 26.7143 0 -1 0
115 1 1 34.0029 36.0703 26.3877 0 -1 0
116 1 2 33.6148 35.3164 25.7513 0 -1 0
117 1 1 33.437 37.3837 25.7547 0 -1 0
120 1 2 33.4964 38.2346 26.5235 0 -1 0
121 1 1 33.2849 35.9322 27.7631 0 -1 0
122 1 2 32.7067 36.8402 27.8748 0 -1 0
123 1 2 34.1329 36.0351 28.4759 0 -1 0
100 1 1 38.6961 36.1916 24.3344 0 -1 0
106 1 1 37.772 35.7689 25.5496 0 -1 0
107 1 2 38.1288 35.0545 26.2227 0 -1 0
109 1 1 36.2695 35.7748 25.2019 0 -1 0
110 1 2 35.848 34.9642 24.6228 0 -1 0
114 1 2 35.8917 35.352 27.1858 0 -1 0
102 1 1 39.4454 34.9811 23.6929 0 -1 0
103 1 2 38.6456 34.4372 23.2595 0 -1 0
105 1 2 39.806 34.3314 24.5076 0 -1 0
111 1 2 36.1108 36.6034 24.4563 0 -1 0
97 1 1 39.755 37.1867 24.866 0 -1 0
99 1 2 39.7638 37.239 25.9495 0 -1 0
108 1 2 37.7783 36.5826 26.2143 0 -1 0
98 1 2 40.7862 36.799 24.5943 0 -1 0
104 1 2 40.1239 35.1623 22.8838 0 -1 0
224 1 2 29.2441 14.1405 31.9053 0 -1 0
225 1 2 27.6498 13.8279 31.2767 0 -1 0
207 1 1 25.1416 18.129 30.2587 0 -1 0
208 1 2 24.672 17.2213 30.7138 0 -1 0
209 1 2 24.6873 17.9727 29.2585 0 -1 0
205 1 1 26.6903 18.0561 30.2444 0 -1 0
211 1 1 27.2083 17.6327 31.6016 0 -1 0
212 1 2 28.2962 17.5229 31.5017 0 -1 0
213 1 2 27.0489 18.3987 32.3766 0 -1 0
214 1 1 26.6697 16.2302 32.0923 0 -1 0
215 1 2 25.6681 16.4314 32.5034 0 -1 0
216 1 2 26.566 15.4989 31.2763 0 -1 0
217 1 1 27.5555 15.7008 33.2678 0 -1 0
218 1 2 28.5198 16.0692 33.0872 0 -1 0
210 1 2 24.8554 19.0563 30.7461 0 -1 0
173 1 2 23.5981 25.9449 32.0886 0 -1 0
175 1 1 24.4681 24.188 30.861 0 -1 0
176 1 2 23.4844 23.9485 30.4174 0 -1 0
186 1 2 24.7523 22.3289 28.6822 0 -1 0
178 1 2 24.9973 22.2457 31.568 0 -1 0
181 1 1 25.5243 24.0139 29.7057 0 -1 0
182 1 2 25.826 25.0397 29.521 0 -1 0
183 1 2 26.3643 23.541 30.1995 0 -1 0
166 1 1 26.0492 27.5373 31.4197 0 -1 0
167 1 2 26.2909 27.4269 30.3787 0 -1 0
168 1 2 25.1525 28.2093 31.4106 0 -1 0
172 1 1 24.3628 25.7131 31.397 0 -1 0
174 1 2 24.087 26.3041 30.5839 0 -1 0
170 1 2 26.4795 25.5732 31.9329 0 -1 0
158 1 2 27.1168 30.3189 31.5071 0 -1 0
140 1 2 28.5978 32.2434 31.1994 0 -1 0
131 1 2 31.3102 33.6108 30.5179 0 -1 0
152 1 2 26.0609 32.1846 33.118 0 -1 0
138 1 2 28.6174 34.4914 29.9538 0 -1 0
139 1 1 29.0155 33.1684 31.6819 0 -1 0
142 1 1 27.9896 33.8661 32.6506 0 -1 0
143 1 2 28.3266 34.8691 32.9498 0 -1 0
144 1 2 27.05 34.0849 32.1518 0 -1 0
128 1 2 30.2289 35.1799 28.2454 0 -1 0
129 1 2 31.1751 35.8314 29.4699 0 -1 0
130 1 1 30.5914 33.7596 29.7761 0 -1 0
136 1 1 29.3884 34.1376 30.583 0 -1 0
137 1 2 29.5634 34.9921 31.2442 0 -1 0
141 1 2 29.938 32.7643 32.1065 0 -1 0
220 1 1 27.7272 14.2035 33.4033 0 -1 0
222 1 1 28.2618 13.621 32.1268 0 -1 0
223 1 2 28.3956 12.4994 32.2325 0 -1 0
229 1 1 28.2662 12.6871 35.4673 0 -1 0
230 1 2 29.2368 12.1735 35.4848 0 -1 0
240 1 2 28.0252 10.2526 36.1982 0 -1 0
226 1 1 28.6051 13.9267 34.6307 0 -1 0
227 1 2 29.6134 13.945 34.2698 0 -1 0
233 1 2 28.4917 13.7956 37.2963 0 -1 0
219 1 2 27.1274 16.1559 34.1777 0 -1 0
221 1 2 26.7698 13.7715 33.6296 0 -1 0
228 1 2 28.5793 14.812 35.2968 0 -1 0
231 1 2 27.5988 12.0154 34.9753 0 -1 0
177 1 1 24.85 23.2499 31.9953 0 -1 0
179 1 2 25.8366 23.4221 32.4562 0 -1 0
180 1 2 24.0955 23.2492 32.7666 0 -1 0
160 1 1 27.1357 28.2452 32.3051 0 -1 0
161 1 2 27.1996 27.9346 33.3485 0 -1 0
169 1 1 25.6405 26.2175 31.9968 0 -1 0
171 1 2 25.4764 26.3039 33.1128 0 -1 0
162 1 1 28.4225 28.065 31.5267 0 -1 0
163 1 2 28.3789 28.4974 30.5657 0 -1 0
165 1 2 28.7525 27.0228 31.4973 0 -1 0
156 1 2 27.6667 30.1696 34.5128 0 -1 0
157 1 1 26.8098 29.8175 32.4377 0 -1 0
159 1 2 25.762 30.0078 32.5661 0 -1 0
154 1 1 27.5032 30.6041 33.5218 0 -1 0
155 1 2 28.489 30.6748 33.1665 0 -1 0
164 1 2 29.1726 28.619 32.0712 0 -1 0
151 1 1 26.8593 31.9597 33.7797 0 -1 0
153 1 2 26.3413 31.7566 34.7153 0 -1 0
145 1 1 27.8611 33.0375 33.9475 0 -1 0
146 1 2 28.8255 32.6966 34.2281 0 -1 0
147 1 1 27.48 33.8517 35.1883 0 -1 0
148 1 2 27.3059 33.1342 36.0371 0 -1 0
149 1 2 28.1908 34.583 35.4827 0 -1 0
150 1 2 26.6502 34.4112 34.9391 0 -1 0
239 1 2 27.7762 9.54756 37.8262 0 -1 0
235 1 1 28.1682 11.727 37.8177 0 -1 0
237 1 1 27.5619 10.4148 37.1617 0 -1 0
238 1 2 26.4588 10.5457 36.9384 0 -1 0
241 1 1 27.6602 11.9233 39.2237 0 -1 0
242 1 2 26.6179 11.9366 39.176 0 -1 0
245 1 2 27.1799 10.2221 40.3063 0 -1 0
246 1 2 28.9599 10.4116 40.1578 0 -1 0
232 1 1 27.9163 12.9744 36.9319 0 -1 0
234 1 2 26.8368 13.2582 36.8574 0 -1 0
236 1 2 29.2743 11.5459 37.9243 0 -1 0
243 1 2 28.029 12.9305 39.481 0 -1 0
298 1 2 34.6135 1.9666 45.8923 0 -1 0
251 1 2 26.5557 10.4219 42.6622 0 -1 0
252 1 1 28.3939 9.7812 43.4083 0 -1 0
253 1 2 27.8571 9.0446 44.007 0 -1 0
254 1 2 28.8031 9.26195 42.601 0 -1 0
255 1 2 29.185 10.2183 44.024 0 -1 0
244 1 1 28.0286 10.9432 40.38 0 -1 0
247 1 1 28.126 11.7255 41.7747 0 -1 0
248 1 2 27.5937 12.5933 41.646 0 -1 0
249 1 2 29.1235 12.0662 42.0249 0 -1 0
250 1 1 27.4702 10.8983 42.944 0 -1 0
293 1 2 34.2997 5.29068 47.6777 0 -1 0
297 1 1 34.5232 2.8586 46.4728 0 -1 0
299 1 2 33.8656 2.52161 47.3066 0 -1 0
300 1 2 35.4964 2.94949 46.9151 0 -1 0
289 1 1 32.325 5.89827 46.9358 0 -1 0
290 1 2 31.805 4.91335 46.9591 0 -1 0
291 1 2 31.8672 6.41908 46.1102 0 -1 0
292 1 1 33.8423 5.48356 46.725 0 -1 0
295 1 1 34.0049 4.22474 45.8332 0 -1 0
296 1 2 33.0991 3.95661 45.2951 0 -1 0
305 1 1 35.0143 4.57729 44.7589 0 -1 0
306 1 2 34.7072 5.55708 44.2153 0 -1 0
308 1 2 35.0522 3.70996 44.1175 0 -1 0
307 1 2 36.0261 4.62591 45.1875 0 -1 0
259 1 1 26.8932 11.1597 45.5705 0 -1 0
260 1 2 25.8103 11.2085 45.914 0 -1 0
261 1 2 27.0745 10.0975 45.6329 0 -1 0
266 1 2 26.9406 10.4011 47.9297 0 -1 0
272 1 2 29.1877 9.83974 46.7619 0 -1 0
256 1 1 27.0739 11.7801 44.154 0 -1 0
257 1 2 26.1211 12.2847 43.9487 0 -1 0
258 1 2 27.783 12.6133 44.2146 0 -1 0
262 1 1 27.7508 11.888 46.5809 0 -1 0
263 1 2 27.2374 12.8036 46.6967 0 -1 0
264 1 2 28.7969 12.0963 46.236 0 -1 0
280 1 1 30.6372 6.65407 48.904 0 -1 0
281 1 2 30.779 7.11419 49.9417 0 -1 0
282 1 1 30.1966 5.13755 49.0996 0 -1 0
283 1 2 29.948 4.60486 48.1543 0 -1 0
284 1 2 30.8998 4.49879 49.7148 0 -1 0
285 1 2 29.3394 4.954 49.7341 0 -1 0
286 1 1 32.0515 6.70767 48.2272 0 -1 0
288 1 2 32.679 6.42401 49.1259 0 -1 0
294 1 2 34.2966 6.41553 46.2859 0 -1 0
265 1 1 27.8311 10.9778 47.8932 0 -1 0
267 1 1 27.768 11.7986 49.1225 0 -1 0
268 1 2 28.6136 12.4983 49.2083 0 -1 0
269 1 2 26.9173 12.4787 49.222 0 -1 0
270 1 2 27.7 11.1805 50.0492 0 -1 0
276 1 2 27.9922 8.6226 49.1095 0 -1 0
271 1 1 29.0207 10.0542 47.8471 0 -1 0
274 1 1 29.0376 8.77674 48.7677 0 -1 0
275 1 2 29.6889 9.03258 49.5635 0 -1 0
277 1 1 29.5928 7.49017 48.0816 0 -1 0
278 1 2 28.7298 6.8849 47.7683 0 -1 0
279 1 2 29.9601 7.82846 47.1254 0 -1 0
287 1 2 32.1796 7.75097 47.9752 0 -1 0
273 1 2 29.8818 10.6449 48.1682 0 -1 0
ITEM: TIMESTEP
2000
ITEM: NUMBER OF ATOMS
308
ITEM: BOX BOUNDS pp pp pp
0.0000000000000000e+00 6.1964045980000002e+01
0.0000000000000000e+00 6.1964045980000002e+01
0.0000000000000000e+00 6.1964045980000002e+01
ITEM: ATOMS id mol type x y z ix iy iz
68 1 2 35.1287 45.7531 21.6743 0 -1 0
72 1 1 35.513 43.1718 22.516 0 -1 0
74 1 2 34.781 43.2555 23.4028 0 -1 0
73 1 2 35.9319 42.1755 22.4764 0 -1 0
75 1 2 34.8377 43.325 21.6323 0 -1 0
53 1 2 37.1409 50.5213 19.8311 0 -1 0
62 1 2 36.2605 47.7054 20.4951 0 -1 0
61 1 1 36.2434 47.9962 21.5557 0 -1 0
52 1 1 36.4931 50.3601 20.7094 0 -1 0
55 1 1 37.0166 49.3219 21.7045 0 -1 0
57 1 1 38.5446 49.1083 21.4368 0 -1 0
59 1 2 38.694 48.4229 20.557 0 -1 0
60 1 2 38.9657 48.5468 22.3069 0 -1 0
46 1 1 34.9716 52.451 20.6345 0 -1 0
48 1 2 35.0327 52.1333 19.5661 0 -1 0
47 1 2 33.9907 52.0986 21.0449 0 -1 0
58 1 2 39.1722 50.025 21.3588 0 -1 0
31 1 1 32.0225 56.4485 20.9866 0 -1 0
33 1 2 31.1551 55.8047 20.9986 0 -1 0
22 1 1 30.1878 57.5541 22.5225 0 -1 0
24 1 2 29.6122 57.7709 21.5755 0 -1 0
32 1 2 32.0218 56.7929 19.9601 0 -1 0
34 1 1 33.3056 55.7342 21.2901 0 -1 0
36 1 2 34.1114 56.4503 21.3068 0 -1 0
37 1 1 33.7522 54.7125 20.2514 0 -1 0
39 1 2 33.8399 55.12 19.2758 0 -1 0
35 1 2 33.1978 55.2199 22.2214 0 -1 0
38 1 2 32.8633 54.0888 20.1053 0 -1 0
40 1 1 35.046 53.9839 20.6886 0 -1 0
42 1 1 36.254 54.5187 19.878 0 -1 0
45 1 2 36.3505 54.2272 18.7918 0 -1 0
18 1 2 27.8614 57.8797 23.7373 0 -1 0
29 1 2 31.2699 59.4945 20.8523 0 -1 0
21 1 2 29.8812 59.7062 23.2583 0 -1 0
25 1 1 31.7017 57.5814 22.0306 0 -1 0
26 1 2 32.3309 57.3852 22.9245 0 -1 0
27 1 1 32.0833 58.9649 21.4111 0 -1 0
28 1 2 32.9595 58.9346 20.7809 0 -1 0
30 1 2 32.392 59.633 22.2154 0 -1 0
1 1 1 27.2024 0.642648 22.1343 0 0 0
2 1 2 26.9132 1.5826 22.4621 0 0 0
3 1 2 26.3392 62.0973 21.7082 0 -1 0
301 1 1 28.2495 0.998054 21.039 0 0 0
303 1 2 29.0141 1.67253 21.3448 0 0 0
304 1 2 27.7793 1.45468 20.2176 0 0 0
4 1 1 27.7203 61.8512 23.3358 0 -1 0
5 1 2 28.7809 61.5712 23.2756 0 -1 0
302 1 2 28.7958 0.169689 20.6471 0 0 0
193 1 2 27.8666 18.7387 26.8756 0 -1 0
195 1 2 29.2214 19.6973 27.4631 0 -1 0
194 1 2 28.1612 20.1846 26.1609 0 -1 0
109 1 1 35.2906 37.8293 24.8432 0 -1 0
110 1 2 35.0184 36.8038 24.74 0 -1 0
111 1 2 35.0276 38.2158 23.8638 0 -1 0
100 1 1 37.5747 37.7359 23.7939 0 -1 0
106 1 1 36.7859 37.8628 25.1462 0 -1 0
102 1 1 37.4013 36.3046 23.0969 0 -1 0
103 1 2 36.3625 36.039 22.9991 0 -1 0
104 1 2 37.8595 36.2702 22.0899 0 -1 0
105 1 2 37.9201 35.457 23.6684 0 -1 0
118 1 2 30.9297 38.4608 26.1756 0 -1 0
119 1 2 31.8424 39.0298 24.7693 0 -1 0
101 1 2 37.0534 38.4733 23.1258 0 -1 0
94 1 1 39.556 39.5499 23.7698 0 -1 0
95 1 2 39.0378 40.1077 22.9774 0 -1 0
97 1 1 39.083 38.1385 24.1467 0 -1 0
91 1 1 39.9867 40.4722 24.9789 0 -1 0
96 1 2 40.5681 39.4136 23.2769 0 -1 0
98 1 2 39.7578 37.4651 23.6343 0 -1 0
84 1 2 38.8308 42.6973 25.5636 0 -1 0
81 1 2 38.895 43.0298 22.7672 0 -1 0
79 1 1 38.9112 43.6919 23.636 0 -1 0
82 1 1 39.5236 43.075 24.8633 0 -1 0
77 1 2 36.946 43.472 24.5876 0 -1 0
88 1 2 42.2794 43.1465 24.8696 0 -1 0
86 1 2 40.6401 41.8053 23.4551 0 -1 0
89 1 2 42.6119 41.4418 25.1783 0 -1 0
83 1 2 40.024 43.8688 25.4151 0 -1 0
85 1 1 40.5027 41.9031 24.5464 0 -1 0
80 1 2 39.5251 44.5304 23.3964 0 -1 0
87 1 1 41.8416 42.2391 25.282 0 -1 0
69 1 2 35.0555 45.8453 23.3001 0 -1 0
67 1 1 35.8007 45.6667 22.5457 0 -1 0
70 1 1 36.5388 44.3198 22.6196 0 -1 0
76 1 1 37.4724 44.1288 23.9005 0 -1 0
78 1 2 37.45 45.0201 24.5122 0 -1 0
71 1 2 37.1434 44.2992 21.7017 0 -1 0
54 1 2 35.5181 50.0414 20.3869 0 -1 0
63 1 2 35.1625 48.1168 21.7879 0 -1 0
64 1 1 36.8046 46.8506 22.312 0 -1 0
65 1 2 37.2124 47.1729 23.2552 0 -1 0
66 1 2 37.6648 46.5834 21.6913 0 -1 0
56 1 2 36.8156 49.6582 22.7633 0 -1 0
49 1 1 36.1281 51.7028 21.3429 0 -1 0
51 1 2 35.8586 51.4788 22.3408 0 -1 0
50 1 2 37.0376 52.2653 21.4543 0 -1 0
17 1 2 28.5823 57.7451 25.2201 0 -1 0
23 1 2 29.9089 56.6129 22.9618 0 -1 0
41 1 2 35.2682 54.1877 21.8058 0 -1 0
44 1 2 37.1973 54.2273 20.3739 0 -1 0
43 1 2 36.1406 55.5926 19.942 0 -1 0
8 1 2 25.92 60.5366 23.6269 0 -1 0
16 1 1 28.4842 58.4019 24.3376 0 -1 0
9 1 2 27.2091 60.0197 22.5766 0 -1 0
6 1 2 27.6071 0.366017 24.2713 0 0 0
7 1 1 26.984 60.4879 23.5378 0 -1 0
10 1 1 27.7002 59.7305 24.7445 0 -1 0
11 1 2 28.2992 60.4652 25.2717 0 -1 0
12 1 1 26.5723 59.2843 25.6597 0 -1 0
13 1 2 26.8785 58.5797 26.4466 0 -1 0
15 1 2 25.8473 58.7504 25.0535 0 -1 0
19 1 1 29.8309 58.6708 23.6244 0 -1 0
20 1 2 30.5579 58.6055 24.4175 0 -1 0
191 1 2 26.1546 20.2377 27.8275 0 -1 0
200 1 2 26.8105 17.4406 29.2258 0 -1 0
201 1 2 25.585 18.6645 29.3475 0 -1 0
196 1 1 27.4998 19.5163 29.4617 0 -1 0
197 1 2 27.3248 20.2455 30.2603 0 -1 0
198 1 2 28.5021 19.0999 29.4965 0 -1 0
199 1 1 26.5156 18.363 29.7774 0 -1 0
184 1 1 26.2873 22.7197 28.2421 0 -1 0
185 1 2 26.0144 22.8744 27.2122 0 -1 0
186 1 2 25.5115 22.1286 28.7052 0 -1 0
190 1 1 27.2231 20.3481 28.1419 0 -1 0
192 1 1 28.1526 19.6954 27.0908 0 -1 0
187 1 1 27.5097 21.8075 28.3257 0 -1 0
188 1 2 28.2778 22.1136 27.6806 0 -1 0
189 1 2 28.0279 21.9374 29.263 0 -1 0
132 1 1 29.9249 34.1954 29.0817 0 -1 0
134 1 2 29.1041 34.8512 29.1477 0 -1 0
135 1 2 30.1443 34.0801 28.0468 0 -1 0
124 1 1 32.0787 36.2153 27.9409 0 -1 0
125 1 2 31.2812 36.1891 27.2159 0 -1 0
127 1 1 31.5144 36.1014 29.4448 0 -1 0
128 1 2 30.68 36.6755 29.6991 0 -1 0
126 1 2 32.5983 35.2994 27.6452 0 -1 0
112 1 1 34.4766 38.6061 25.8367 0 -1 0
115 1 1 33.1146 37.9368 26.1584 0 -1 0
116 1 2 32.9827 37.1461 25.4827 0 -1 0
121 1 1 33.0955 37.4255 27.6153 0 -1 0
123 1 2 34.0466 36.959 27.9317 0 -1 0
114 1 2 35.0592 38.6635 26.7921 0 -1 0
107 1 2 37.04 37.0341 25.7514 0 -1 0
108 1 2 37.0934 38.7792 25.6422 0 -1 0
122 1 2 32.9825 38.3038 28.2442 0 -1 0
113 1 2 34.3112 39.6332 25.4449 0 -1 0
117 1 1 31.9252 38.8181 25.8472 0 -1 0
120 1 2 32.1307 39.7879 26.4052 0 -1 0
92 1 2 39.0941 40.5252 25.617 0 -1 0