LAMMPS data file via write_data, version 17 Apr 2024, timestep = 100000, units = real

308 atoms
2 atom types
307 bonds
2 bond types
612 angles
3 angle types
909 dihedrals
3 dihedral types

0 61.96404598 xlo xhi
0 61.96404598 ylo yhi
0 61.96404598 zlo zhi

Masses

1 12.011
2 1.0079

Pair Coeffs # lj/cut/coul/long

1 0.066 3.5
2 0.03 2.5

Bond Coeffs # harmonic

1 268 1.529
2 340 1.09

Angle Coeffs # harmonic

1 58.35 112.7
2 37.5 110.7
3 33 107.8

Dihedral Coeffs # multi/harmonic

1 3.565 5.393 -9.42 -2.776 8.472
2 0.15 -0.45 0 0.6 0
3 0.15 -0.45 0 0.6 0

Atoms # full

308 1 2 0.06 47.079336046633664 17.439417525956003 16.818718033275978 0 -1 0
306 1 2 0.06 48.01578930940986 18.59674951430207 17.656600674575227 0 -1 0
203 1 2 0.06 32.21164728200133 31.89264313159109 16.0794103509486 0 -1 0
204 1 2 0.06 31.25161772985019 31.211499650829396 17.23913866944566 0 -1 0
202 1 1 -0.12 32.13635236814005 31.804739653029277 17.168457463726593 0 -1 0
210 1 2 0.06 33.35625092537616 29.73223503840855 16.023028903480636 0 -1 0
209 1 2 0.06 34.21383361664252 31.21050270368948 15.922481885411187 0 -1 0
207 1 1 -0.18 34.00486104504404 30.361523596453015 16.565204631513907 0 -1 0
208 1 2 0.06 34.948854914352445 29.76531414413614 16.783498811545222 0 -1 0
195 1 2 0.06 29.121884636106312 35.80834249187931 16.098164149676958 0 -1 0
193 1 2 0.06 28.66482286564571 34.95529626129351 17.56949264632652 0 -1 0
192 1 1 -0.18 29.310030982977292 35.73140042645421 17.20081518210066 0 -1 0
197 1 2 0.06 32.12789576698627 34.59029413154379 16.082861688077244 0 -1 0
198 1 2 0.06 30.54971524692126 33.79449031829729 16.298827003697703 0 -1 0
190 1 1 -0.06 30.75991001460937 35.51681907731455 17.579463061763967 0 -1 0
196 1 1 -0.12 31.38562178310198 34.3194829317639 16.8102683819128 0 -1 0
199 1 1 -0.12 31.989379422607964 33.192827448497674 17.71575197525462 0 -1 0
194 1 2 0.06 28.98184347348914 36.581778440307765 17.852534153710177 0 -1 0
188 1 2 0.06 30.843781442218155 37.608119775214846 16.959419106864967 0 -1 0
189 1 2 0.06 32.23817058852005 36.88170778801939 16.512838637745173 0 -1 0
182 1 2 0.06 31.25183314371495 39.49466708017356 18.698972857491224 0 -1 0
183 1 2 0.06 32.72107545926964 39.27588613968823 17.777501631261522 0 -1 0
187 1 1 -0.12 31.56167259974962 36.856154520572346 17.367586192656066 0 -1 0
300 1 2 0.06 44.5391399301339 17.037389014990282 17.675292714344213 0 -1 0
297 1 1 -0.18 44.84658023862944 17.56172768195185 18.64853483476996 0 -1 0
307 1 2 0.06 47.365516346749615 17.219723785835733 18.34817484466365 0 -1 0
299 1 2 0.06 45.255904135876 16.855933349567252 19.358911518575372 0 -1 0
305 1 1 -0.18 47.156158053550776 18.025190256988278 17.713523939065798 0 -1 0
298 1 2 0.06 43.947615834655814 17.926289994040566 19.067221416802678 0 -1 0
296 1 2 0.06 45.52821526716183 19.181019351424 17.310111225539377 0 -1 0
295 1 1 -0.06 45.88362910967304 18.640459802419283 18.248837719409067 0 -1 0
291 1 2 0.06 45.10710392768421 21.199232969110493 17.967887016853044 0 -1 0
293 1 2 0.06 46.06093195639745 19.291310410944885 20.25441317543453 0 -1 0
292 1 1 -0.12 46.12303126555096 19.76388692746516 19.256278598709976 0 -1 0
294 1 2 0.06 47.151902399294954 20.13683600121604 19.179045058136236 0 -1 0
290 1 2 0.06 44.199445085509765 20.532439214462062 19.280566451481338 0 -1 0
289 1 1 -0.12 45.202573003205146 20.9113760043155 19.022423950461924 0 -1 0
286 1 1 -0.12 45.73511974172966 22.120323088687314 19.837055395881716 0 -1 0
287 1 2 0.06 46.371267393594074 22.79299906399782 19.204566142729348 0 -1 0
281 1 2 0.06 43.73732773761097 22.130027143378648 20.55576857900094 0 -1 0
285 1 2 0.06 43.53279285893008 24.7959039879666 20.46053676899258 0 -1 0
282 1 1 -0.18 44.231084144717634 24.255441287802768 19.887357105958436 0 -1 0
283 1 2 0.06 45.16570737980956 24.795820551683462 19.93221974163439 0 -1 0
284 1 2 0.06 43.88744377963109 24.212025177737114 18.888748095160317 0 -1 0
219 1 2 0.06 31.8130833151113 28.143862940313348 20.667010290990536 0 -1 0
212 1 2 0.06 31.648549855080876 29.672365259838116 18.498520982229287 0 -1 0
205 1 1 -0.06 33.33438453787836 31.003093177859704 17.72030561802045 0 -1 0
211 1 1 -0.12 32.813904603068636 29.800773403748597 18.581354011627344 0 -1 0
213 1 2 0.06 33.15023754003709 28.8836747447527 18.110999066331505 0 -1 0
214 1 1 -0.12 33.05165287982042 29.83130623434467 20.121623603569027 0 -1 0
216 1 2 0.06 33.08692033556105 30.87748239960156 20.371782039472592 0 -1 0
218 1 2 0.06 30.90930887971202 29.615866619587333 20.728681892874732 0 -1 0
217 1 1 -0.12 31.908854129396445 29.209966388828818 20.96633746022943 0 -1 0
206 1 2 0.06 33.943176640535164 31.67400062304255 18.3802636772716 0 -1 0
215 1 2 0.06 34.005625255121664 29.305308705854898 20.377912860429763 0 -1 0
201 1 2 0.06 32.88008365381712 33.650483006010276 18.09158397753765 0 -1 0
200 1 2 0.06 31.384079035121864 33.07794309440692 18.65021754903971 0 -1 0
191 1 2 0.06 30.66679263091085 35.252199666555725 18.65919885229139 0 -1 0
185 1 2 0.06 31.49761508580405 37.219152784008756 19.589768303198632 0 -1 0
181 1 1 -0.12 32.24131080852534 39.01403336777463 18.698362690037587 0 -1 0
184 1 1 -0.12 32.19714235877547 37.48027869617823 18.672986297781645 0 -1 0
186 1 2 0.06 33.20842858216536 37.06996657167891 18.797420048461678 0 -1 0
175 1 1 -0.06 33.009211919809964 39.49286434617247 19.92789001388886 0 -1 0
171 1 2 0.06 31.504471493636498 38.651586782935304 22.47995941711465 0 -1 0
176 1 2 0.06 33.48758084883289 38.70677967171524 20.490664977851985 0 -1 0
178 1 2 0.06 34.92038063190105 40.084234457704824 18.792736657127858 0 -1 0
173 1 2 0.06 31.016650958377422 40.268908267707545 20.576221818760693 0 -1 0
172 1 1 -0.12 32.05640242193385 40.14529153375154 21.00851887007187 0 -1 0
174 1 2 0.06 32.45883565416081 41.193183519088265 21.107867204937822 0 -1 0
179 1 2 0.06 33.655820561882706 41.3109391474218 18.91032383381157 0 -1 0
177 1 1 -0.18 34.10087485636939 40.52119350933904 19.5086050785895 0 -1 0
180 1 2 0.06 34.59999144820014 41.045916362269026 20.314973370503417 0 -1 0
288 1 2 0.06 46.43992323146354 21.774410758820725 20.5922289820675 0 -1 0
275 1 2 0.06 43.42078705579116 21.547881161751196 22.94913327590283 0 -1 0
238 1 2 0.06 33.53484686241037 24.15578783595818 24.536948117248752 0 -1 0
240 1 2 0.06 34.84295547980496 23.571242597398 25.526010291396158 0 -1 0
239 1 2 0.06 33.60004798779595 24.500367525666466 26.282409382988206 0 -1 0
234 1 2 0.06 32.821009594594834 26.546084455116837 25.33314140379899 0 -1 0
237 1 1 -0.18 34.16762759124248 24.402108404827704 25.390866621629446 0 -1 0
235 1 1 -0.06 34.90767769842267 25.713962766707375 25.13087078295488 0 -1 0
236 1 2 0.06 35.55330626757771 25.604491187531337 24.2418899882786 0 -1 0
245 1 2 0.06 37.627505578312885 25.132425520752587 25.33065307734153 0 -1 0
276 1 2 0.06 42.72752903810609 23.11873962840146 22.62696428272796 0 -1 0
280 1 1 -0.06 44.57286797227455 22.87441283953825 20.597001852858117 0 -1 0
279 1 2 0.06 45.60626760146056 22.343046831178473 22.36116588870973 0 -1 0
274 1 1 -0.12 43.59820499333758 22.656225826034845 23.03732181548121 0 -1 0
277 1 1 -0.12 44.81754418079659 23.01566682075056 22.09861437886791 0 -1 0
278 1 2 0.06 45.16120747246797 24.015029270461053 22.317079921585062 0 -1 0
227 1 2 0.06 31.831163623033447 28.099027466159875 24.20419754597397 0 -1 0
228 1 2 0.06 31.49045280447628 27.29843416094201 22.68395773191516 0 -1 0
226 1 1 -0.12 32.214942612325544 27.981836798809148 23.20334725578225 0 -1 0
232 1 1 -0.12 33.818571605103436 26.833176114269207 25.009926145462234 0 -1 0
229 1 1 -0.12 33.59979757194186 27.436231666635628 23.574581006909657 0 -1 0
230 1 2 0.06 34.465960758406865 28.102822252201157 23.349283836383318 0 -1 0
231 1 2 0.06 33.951250310222804 26.72268368843658 22.81540040983119 0 -1 0
246 1 2 0.06 37.83908752388106 26.899204927497426 25.468858473184707 0 -1 0
220 1 1 -0.06 32.3081648870809 29.34580162570699 22.48877029190851 0 -1 0
224 1 2 0.06 30.205519002363893 29.990901198596482 23.079307351411103 0 -1 0
222 1 1 -0.18 31.222173685686624 30.29697929521633 23.115235605864388 0 -1 0
225 1 2 0.06 31.24395722578084 31.2871183524526 22.670920183107235 0 -1 0
221 1 2 0.06 33.30635165645558 29.884938300103915 22.595577490256755 0 -1 0
223 1 2 0.06 31.500596759951254 30.460029020731252 24.06717491489524 0 -1 0
149 1 2 0.06 25.761273666184902 36.29866381166776 25.551756742259826 0 -1 0
150 1 2 0.06 25.288691680562817 37.20800316247562 24.16885535484587 0 -1 0
147 1 1 -0.18 26.092715877326864 37.122451672283475 24.888578427357647 0 -1 0
148 1 2 0.06 27.018381854597774 36.83592372906409 24.339838942476 0 -1 0
145 1 1 -0.06 26.436171298424917 38.28375978432547 25.78355531653681 0 -1 0
153 1 2 0.06 27.122043779937027 39.23920096098464 24.011857896018974 0 -1 0
151 1 1 -0.12 27.139599532323885 39.4313964129016 25.112007748063515 0 -1 0
156 1 2 0.06 28.97529191019209 38.521596255811794 25.4823167301225 0 -1 0
154 1 1 -0.12 28.59728293730433 39.54289771658571 25.547669296204514 0 -1 0
170 1 2 0.06 33.1068495816218 39.19062453525151 22.794138700977584 0 -1 0
152 1 2 0.06 26.538349368882216 40.31439885265722 25.27502823182571 0 -1 0
159 1 2 0.06 29.28390348867738 40.11609999599192 23.575168025631907 0 -1 0
157 1 1 -0.12 29.584551803737842 40.30257264861387 24.614539569942618 0 -1 0
158 1 2 0.06 29.47014386186702 41.34674335558568 24.822817257670195 0 -1 0
168 1 2 0.06 31.324191999458396 41.39849253861066 23.053994518352788 0 -1 0
166 1 1 -0.12 31.87713076066297 40.62447288318065 23.570510755502863 0 -1 0
169 1 1 -0.12 32.15758396756136 39.53509571054376 22.46340928965761 0 -1 0
167 1 2 0.06 32.825342998818876 41.09000936891513 23.815072784635635 0 -1 0
160 1 1 -0.06 31.105139733017538 39.93915303561301 24.774058608483138 0 -1 0
161 1 2 0.06 31.211042481475456 38.81695515030265 24.647301623375064 0 -1 0
162 1 1 -0.18 31.63826899496734 40.23068070502258 26.110280563755246 0 -1 0
165 1 2 0.06 31.700751470598345 41.34138287962302 26.2846849729491 0 -1 0
164 1 2 0.06 32.611630664072486 39.829036967182255 26.226920073478592 0 -1 0
269 1 2 0.06 42.97002647135731 20.672413325995375 26.76997437792351 0 -1 0
270 1 2 0.06 43.96832007858883 20.61671746455111 25.37334918531848 0 -1 0
267 1 1 -0.18 43.59974361960144 21.24142302227601 26.09092073189671 0 -1 0
266 1 2 0.06 41.96331794182783 22.15410660128726 25.16493585306901 0 -1 0
268 1 2 0.06 44.51191604989419 21.540610758628254 26.621687615642763 0 -1 0
242 1 2 0.06 35.85094957348075 25.216168849675096 27.026429575041067 0 -1 0
241 1 1 -0.12 35.89305447263281 26.00446194118436 26.288512822654166 0 -1 0
244 1 1 -0.12 37.44140832075601 25.982934572543133 25.9676312702806 0 -1 0
248 1 2 0.06 38.169052267026984 25.02350969479455 27.884640944243106 0 -1 0
247 1 1 -0.12 38.32549022308953 25.99476598349204 27.281117919087208 0 -1 0
257 1 2 0.06 40.31517419764818 24.377427642967817 28.00966881592998 0 -1 0
260 1 2 0.06 40.76025825774154 24.038483475681364 25.549349626467443 0 -1 0
256 1 1 -0.12 40.750619929735365 25.21129538537038 27.398034940931797 0 -1 0
265 1 1 -0.06 42.92790886340231 22.481395541837674 25.571470905789692 0 -1 0
263 1 2 0.06 42.07098788923603 22.97082997017213 27.481600842294224 0 -1 0
259 1 1 -0.12 41.479865998664 24.56799858818361 26.2592314066807 0 -1 0
262 1 1 -0.12 42.519585608021345 23.493042051616747 26.64416854847961 0 -1 0
261 1 2 0.06 41.928362470353036 25.36897308363249 25.68172796706705 0 -1 0
264 1 2 0.06 43.49710626538672 23.884779553389215 26.978785883192 0 -1 0
273 1 2 0.06 44.68490456455392 22.993498648638873 24.880964863066534 0 -1 0
271 1 1 -0.12 43.72057002510242 23.148032121291447 24.482271131369345 0 -1 0
272 1 2 0.06 43.513883833361 24.22862740445521 24.556927632435883 0 -1 0
233 1 2 0.06 34.10417183234336 27.691499246756212 25.707735431553456 0 -1 0
243 1 2 0.06 35.60545268842856 26.931158443824074 26.6957576127701 0 -1 0
249 1 2 0.06 37.89751162594305 26.760017274441736 27.89004748244152 0 -1 0
250 1 1 -0.06 39.82445837028242 26.38378852103865 27.033288121363043 0 -1 0
251 1 2 0.06 40.02126367836809 26.73285761227676 25.972635768434166 0 -1 0
254 1 2 0.06 39.839458846939245 28.55288732846586 27.37904057817622 0 -1 0
252 1 1 -0.18 40.336678314916604 27.5944950232141 27.824603209314056 0 -1 0
255 1 2 0.06 39.98479430446727 27.526815642318503 28.852213634502778 0 -1 0
258 1 2 0.06 41.54886267472242 25.53099048130059 28.06306996727798 0 -1 0
253 1 2 0.06 41.42936856326153 27.846166777470295 27.816179924666788 0 -1 0
141 1 2 0.06 25.566917752384864 37.56091992573245 28.28617043628413 0 -1 0
143 1 2 0.06 24.33229257258669 38.08126064515657 26.15767357589936 0 -1 0
139 1 1 -0.12 25.186504982337997 38.59197616818979 28.0797357496227 0 -1 0
142 1 1 -0.12 25.126450065445397 38.728305131396326 26.553047903735333 0 -1 0
137 1 2 0.06 22.992877172487074 38.382431509711196 28.60006748036262 0 -1 0
136 1 1 -0.12 23.824524452505255 39.04750648229594 28.71216436721888 0 -1 0
146 1 2 0.06 27.036896626798402 37.74121033128126 26.52311456844825 0 -1 0
140 1 2 0.06 25.901551693554946 39.37964479375209 28.302212718231374 0 -1 0
144 1 2 0.06 24.73172185055097 39.71512194096987 26.24044584108814 0 -1 0
138 1 2 0.06 23.5103526838532 39.92871499710271 28.098926518184406 0 -1 0
155 1 2 0.06 28.742785660312123 39.84610537188396 26.520116901746537 0 -1 0
163 1 2 0.06 31.108638174510478 39.784378604983985 26.955266494053546 0 -1 0
105 1 2 0.06 20.07397492443004 31.896728982134377 33.642132336674614 0 -1 0
102 1 1 -0.18 21.11215859737498 31.69943608336542 33.28873239988794 0 -1 0
104 1 2 0.06 21.108149334514433 30.61132400027599 33.03481710663102 0 -1 0
103 1 2 0.06 21.262225120469136 32.218809613436925 32.36431148877186 0 -1 0
110 1 2 0.06 23.17578649361112 34.499835084214496 33.250923976154844 0 -1 0
129 1 2 0.06 23.172725482609522 37.57119961235942 30.479554002030426 0 -1 0
126 1 2 0.06 24.551349197746287 36.70802436064929 31.73975486741526 0 -1 0
124 1 1 -0.12 24.412391621346462 37.748973540672 32.02249154699971 0 -1 0
125 1 2 0.06 25.456416355124485 38.104865995117414 31.964992666513336 0 -1 0
127 1 1 -0.12 23.446691220966514 38.453654401774905 31.08580543594684 0 -1 0
128 1 2 0.06 22.534030497081897 38.79196181582543 31.593453885395867 0 -1 0
131 1 2 0.06 25.084514739533084 39.71518327018562 30.46869882399685 0 -1 0
130 1 1 -0.06 24.079127542756076 39.52265906621948 30.18599507439779 0 -1 0
133 1 2 0.06 23.613981720251225 41.70357024556305 29.932970443961104 0 -1 0
132 1 1 -0.18 23.41736350499947 40.80072916796184 30.493568455139417 0 -1 0
135 1 2 0.06 23.619081696787696 41.09797385374903 31.503588869583286 0 -1 0
134 1 2 0.06 22.367547766723966 40.61794192320805 30.444449271656865 0 -1 0
99 1 2 0.06 22.006311680543757 31.61954235888763 36.651108520989155 0 -1 0
98 1 2 0.06 20.643725523068554 31.436797676449885 35.83626371539432 0 -1 0
100 1 1 -0.06 22.151679313407477 31.95146737268432 34.4119889020825 0 -1 0
97 1 1 -0.12 21.700810430112618 31.2713783675612 35.718640445841395 0 -1 0
101 1 2 0.06 23.145326722955037 31.659724160122302 34.02596820597408 0 -1 0
94 1 1 -0.12 22.208384584231965 29.84987761004051 35.92447831071604 0 -1 0
95 1 2 0.06 23.25803545502275 29.872850883678463 35.92955739366354 0 -1 0
96 1 2 0.06 21.813293347376728 29.165127600481426 35.183047425350665 0 -1 0
107 1 2 0.06 21.24857962090433 33.99691763766463 34.32879022747144 0 -1 0
114 1 2 0.06 22.376478020105466 36.16177316499404 35.13710218470386 0 -1 0
106 1 1 -0.12 22.11532438084978 33.52764327295243 34.65255412658033 0 -1 0
113 1 2 0.06 23.776557414374498 35.497244374569085 36.074128012739585 0 -1 0
108 1 2 0.06 22.07050417340665 33.78849216742923 35.65881591687789 0 -1 0
109 1 1 -0.12 23.33290236084832 34.33285050927591 34.28418157550674 0 -1 0
112 1 1 -0.12 23.36857447227562 35.71963845523505 35.03233375915362 0 -1 0
111 1 2 0.06 24.304691494769113 33.86039207062747 34.260615895240434 0 -1 0
116 1 2 0.06 25.037593113255493 35.82578662614894 33.709906949990255 0 -1 0
115 1 1 -0.06 24.436344740709483 36.56919084061808 34.305476337995415 0 -1 0
119 1 2 0.06 25.79454851189348 36.29453516251346 36.096894372658724 0 -1 0
121 1 1 -0.12 24.009015432440314 37.74153224790781 33.45053333102193 0 -1 0
123 1 2 0.06 22.99795872860764 37.80438583274742 33.49118883988632 0 -1 0
122 1 2 0.06 24.192314815572708 38.734270436726725 33.84092745420271 0 -1 0
120 1 2 0.06 24.768683736645492 37.67591915073319 36.17905529224457 0 -1 0
117 1 1 -0.18 25.40125662282437 37.09365267898061 35.49698827370191 0 -1 0
118 1 2 0.06 26.12424656905672 37.850667436459595 35.26043398593544 0 -1 0
89 1 2 0.06 22.015569697149935 26.779269667126673 38.50291958781405 0 -1 0
87 1 1 -0.18 22.419005005697922 27.562768617243535 39.109477517327576 0 -1 0
90 1 2 0.06 21.591055453103063 27.791993583759673 39.81577734573073 0 -1 0
88 1 2 0.06 23.209455713254215 27.06561501492977 39.704979886072756 0 -1 0
86 1 2 0.06 23.741279722777364 28.84937741099789 37.83354191930451 0 -1 0
93 1 2 0.06 21.249963505390237 28.408505545270106 37.00326023695285 0 -1 0
92 1 2 0.06 20.9751902204119 29.892123944845068 37.75937484829916 0 -1 0
91 1 1 -0.12 21.762486714792953 29.315750064294573 37.28538167942812 0 -1 0
85 1 1 -0.06 22.767951728247553 28.906559374425598 38.369360751706324 0 -1 0
82 1 1 -0.12 23.009748057464535 30.050974787128336 39.39193515458399 0 -1 0
79 1 1 -0.12 24.29715545638722 30.90325455370102 39.15132144902642 0 -1 0
81 1 2 0.06 24.373422365948787 31.106971605490696 38.14504913973686 0 -1 0
80 1 2 0.06 25.15544200696578 30.221972963982303 39.210613527675534 0 -1 0
73 1 2 0.06 25.41702692469211 33.377559045107006 37.60501505408204 0 -1 0
71 1 2 0.06 26.59758458475804 32.317889571794815 39.19784477602138 0 -1 0
83 1 2 0.06 23.273113830032308 29.54204444814369 40.303680943392614 0 -1 0
84 1 2 0.06 22.188345630242495 30.703101222544138 39.41026860556607 0 -1 0
77 1 2 0.06 23.624150021357853 32.83294381643938 39.92919917794325 0 -1 0
78 1 2 0.06 24.527884255661505 31.872009615803528 41.030185318685206 0 -1 0
76 1 1 -0.12 24.45872940687249 32.180301637358625 39.980224673721516 0 -1 0
69 1 2 0.06 25.632118773798883 33.974726779681845 41.628824284765805 0 -1 0
65 1 2 0.06 27.057630247935773 32.42373941828077 42.37772510090953 0 -1 0
56 1 2 0.06 29.85885124192389 32.31267774660656 42.31800872057974 0 -1 0
50 1 2 0.06 31.18302709057007 31.632985777667205 43.780392781935056 0 -1 0
52 1 1 -0.12 30.462004690990128 33.565963313777274 43.9829758375389 0 -1 0
74 1 2 0.06 24.706578463392365 34.663671016669205 38.50588688849305 0 -1 0
72 1 1 -0.18 25.52663901211374 33.959666796578134 38.52358392777073 0 -1 0
64 1 1 -0.12 27.568723640579243 33.04897889772955 41.58186620565192 0 -1 0
70 1 1 -0.06 25.76561477413342 32.95163575865145 39.62839412304706 0 -1 0
67 1 1 -0.12 26.36615354989737 33.74483173195549 40.82748592877672 0 -1 0
75 1 2 0.06 26.48973974733781 34.42594167177301 38.30290342651675 0 -1 0
68 1 2 0.06 26.797847593736837 34.733041443858596 40.536173983207455 0 -1 0
66 1 2 0.06 28.065652863597798 32.2555455020488 40.9333921145514 0 -1 0
63 1 2 0.06 28.217342791558053 34.67815708673967 42.990475764446046 0 -1 0
55 1 1 -0.06 29.960362336842056 33.365079822818906 42.5205195771795 0 -1 0
61 1 1 -0.12 28.61955988267573 34.069740588391205 42.189986810451394 0 -1 0
62 1 2 0.06 28.86138323488884 34.86670944998804 41.50172503761956 0 -1 0
57 1 1 -0.18 31.16470635604746 33.81652237141458 41.63753749758499 0 -1 0
58 1 2 0.06 30.98033518565839 33.42907167674434 40.611624170355 0 -1 0
60 1 2 0.06 31.382815750048632 34.865980088403504 41.640626534370014 0 -1 0
59 1 2 0.06 32.072946266636585 33.36599687363318 41.967602872558146 0 -1 0
302 1 2 0.06 17.820392424538426 26.446792709822805 48.31118260446703 0 -1 0
303 1 2 0.06 18.865668572315435 26.96829619204784 46.98468632041731 0 -1 0
304 1 2 0.06 18.533648363594235 28.064987703754305 48.400401607402664 0 -1 0
301 1 1 -0.18 18.71861651485693 26.997940379840664 48.01591982549383 0 -1 0
1 1 1 -0.12 20.015462309484178 26.353443520457056 48.603957231351835 0 -1 0
6 1 2 0.06 20.870574520328866 28.205107829313143 48.37540067132629 0 -1 0
4 1 1 -0.12 21.275336447849728 27.23453511294158 48.3306448663681 0 -1 0
5 1 2 0.06 21.776897958676116 26.953140000973214 47.379032641897744 0 -1 0
35 1 2 0.06 29.21422749797002 30.19279082868344 47.08893951371419 0 -1 0
36 1 2 0.06 30.342176772204073 28.845452882668305 46.88913405624821 0 -1 0
34 1 1 -0.12 30.06354325001902 29.683198304946696 47.50021711138193 0 -1 0
41 1 2 0.06 31.775951103067662 30.165726728001225 45.55255787735989 0 -1 0
45 1 2 0.06 33.83999157477414 29.65030961040122 46.758378667857265 0 -1 0
11 1 2 0.06 23.388231881669387 28.819170628314914 48.50329716299012 0 -1 0
37 1 1 -0.12 31.247681772012196 30.59411237864687 47.606289351017935 0 -1 0
40 1 1 -0.06 32.0811567785074 30.867802465148674 46.3365397684555 0 -1 0
47 1 2 0.06 31.587048265764082 32.96589785868515 46.62562857416485 0 -1 0
46 1 1 -0.12 31.84291097605309 32.302184947677205 45.816765196890714 0 -1 0
51 1 2 0.06 29.863421599609893 31.77650940415338 44.91852958533056 0 -1 0
49 1 1 -0.12 30.823486418032335 32.206147528850735 44.66803701726486 0 -1 0
43 1 2 0.06 34.21823742232273 30.95444089344823 45.744406923951 0 -1 0
42 1 1 -0.18 33.586180030156044 30.702983167772125 46.66347455765228 0 -1 0
44 1 2 0.06 34.051713260548595 31.29497686936496 47.48743940767687 0 -1 0
48 1 2 0.06 32.7549058707603 32.72293956305704 45.426467076864434 0 -1 0
54 1 2 0.06 29.71257529961008 33.967432493826976 44.561650345411365 0 -1 0
53 1 2 0.06 31.3240617985189 34.181630749091525 44.030563192669064 0 -1 0
3 1 2 0.06 20.20930937569612 25.39687297763782 48.12779771271929 0 -1 0
30 1 2 0.06 28.731761401954852 25.543187147007668 48.448580812787284 0 -1 0
28 1 2 0.06 30.208823432444156 26.38800308153353 48.09057207735131 0 -1 0
2 1 2 0.06 19.858590463770575 26.21664742012788 49.71587150775292 0 -1 0
8 1 2 0.06 21.921161156622812 27.14190857988966 50.39475850361139 0 -1 0
7 1 1 -0.12 22.338051355990846 27.15554278703419 49.416182993201936 0 -1 0
9 1 2 0.06 22.804277309842504 26.196477455728797 49.333404472194815 0 -1 0
16 1 1 -0.12 24.90711842623444 27.4682866553299 49.47563595287461 0 -1 0
18 1 2 0.06 24.79573873280068 26.403888563947152 49.350252471228195 0 -1 0
21 1 2 0.06 26.119475482719555 27.406797977818613 47.649532058613396 0 -1 0
26 1 2 0.06 28.23675065515909 27.81557438022683 47.4223714383671 0 -1 0
25 1 1 -0.06 28.587199062167993 27.847992316158912 48.453110742665196 0 -1 0
22 1 1 -0.12 27.35500273561719 27.956103538022134 49.3709454638726 0 -1 0
27 1 1 -0.18 29.30913521602079 26.44219536893005 48.773777203811115 0 -1 0
24 1 2 0.06 27.36922915044852 27.112831363463236 50.00389125714686 0 -1 0
19 1 1 -0.12 26.028161811990337 27.983952873329727 48.602026568453596 0 -1 0
23 1 2 0.06 27.325599082713705 28.8647137945816 49.925283810277946 0 -1 0
29 1 2 0.06 29.53351751219964 26.27168240778321 49.85724785748534 0 -1 0
31 1 1 -0.12 29.604108343800576 28.95534878393704 48.77730285754912 0 -1 0
32 1 2 0.06 30.535084178110694 28.69402260458702 49.23312961703517 0 -1 0
33 1 2 0.06 29.166970278308835 29.77078547632053 49.2874095738357 0 -1 0
14 1 2 0.06 22.437450103110965 29.80464837510797 50.45608635117922 0 -1 0
12 1 1 -0.18 23.339004330181112 29.14542817799313 50.55229609853535 0 -1 0
10 1 1 -0.06 23.497163761983863 28.183340143749447 49.34676552107729 0 -1 0
13 1 2 0.06 24.20410539077487 29.869787905233306 50.73118225007425 0 -1 0
15 1 2 0.06 23.4033942840169 28.55215567170157 51.43503138521776 0 -1 0
17 1 2 0.06 25.219529476573225 27.503832038616153 50.527884678983355 0 -1 0
20 1 2 0.06 25.73540761382996 29.019509436977753 48.2724329770139 0 -1 0
39 1 2 0.06 31.837835072786255 30.359587824956453 48.41259299518104 0 -1 0
38 1 2 0.06 30.858573097092684 31.517575594905082 48.117315151207464 0 -1 0

Velocities

308 0.004487926810807814 -0.0025620468200956144 -0.010094026390733445
306 -0.0044569798152943145 0.015239737131127128 -0.02482934219475814
203 -0.012572354636871478 0.0031508879357415383 0.011414976392850206
204 -0.010874644470629982 0.012709271652815763 -0.012011318972333146
202 0.0007633795810287939 -0.003677387641785599 -0.00030347742284498426
210 0.006276196599162182 0.013556577085471668 -0.004637403843306788
209 -0.010680392497373067 -0.0026785813815623357 -0.007710972048470539
207 -0.001571578789727786 -0.00028450652707255565 -0.002881128692734989
208 0.008206854302673974 0.00896185839273399 0.016517795850091
195 0.019901129827192592 0.03285729864157996 -0.0010490473561578896
193 0.034852983482238184 0.0007386204872108091 0.005112901269343782
192 0.006328266988230536 0.0009242830363942536 0.007141723076946468
197 0.016171198035213354 -0.0017098433310165156 -0.022372170444813076
198 -0.007063437452907879 -0.0020676894559709435 0.00300580049690296
190 -0.00236875214266164 -0.0054241840158214105 -0.0006983055901863566
196 -0.0001899245575369243 -0.002305241702905573 -0.0002742144561337786
199 0.005683031336489987 0.0032513036359783204 -0.004669694230934201
194 0.019681422790623754 0.028415325096298606 0.02105444308283027
188 0.005778807146102075 0.00723810735176425 0.02111906005776617
189 0.011942048542384509 0.0054119787759926916 -0.005760419681904949
182 0.0003291289385487338 -0.01078724666087532 0.00862208703364293
183 0.01080696202472037 0.027282994414914517 -0.019616659417191696
187 -0.0008721884711961123 -0.008919194221975351 0.002128521410748895
300 -0.026345369134477267 0.00023801344491460716 -0.0025355050025472306
297 0.006233509448806834 0.00687387375751367 0.007018368479839908
307 -0.008739246426103896 -0.014886525557799296 0.0090821244006961
299 -0.0037543627855107834 -0.03487359055500808 0.0009138361049053625
305 -0.0013837601406772944 0.004980136333541258 -0.00459235293722181
298 0.023608417899395207 -0.002674222655285232 0.010784227461344645
296 0.008998659193018382 0.024770212614727956 0.0017779000954191218
295 0.0010567980692363576 -0.0002499245725376429 -0.0012933307641045443
291 -0.0054307839888305676 0.008507366314441465 -0.012366900140147016
293 0.0005116154352057993 0.025383632221836396 -0.023961572671817245
292 0.003572434485000623 -0.00875127738476752 0.0024431689748623626
294 -0.010051327092615121 -0.022855658527800554 -0.018622319173483462
290 -0.01871479449265183 0.012177131369639082 -0.023031511972208492
289 -0.0015980339889389722 -0.0012596199460194694 -0.010167990985893785
286 0.008900686189251342 0.0011244043982353545 -0.002478726437109561
287 -0.012637368203596048 -0.02618119366390324 0.008282130076359837
281 -0.0014719712235211051 0.014205333276776129 -0.00886643051004715
285 -0.008804439056575594 0.002061977186927925 -0.005935044058708653
282 -0.0006635339997035576 0.0021824412881124274 -0.006722287829573327
283 0.014071997752243213 -0.009244341165110508 0.0007509982286029167
284 -0.002180141627317452 -0.003234989210522032 0.018429522440721668
219 0.010953019602203799 -0.011935611891765055 0.02333845747584544
212 0.0032139152460199886 -0.017096719468728146 -0.00459430938563888
205 0.0011079202709107171 0.0037642997954473035 0.00503004575137425
211 0.002486035237953363 -0.006758036152127876 0.0014998274147706107
213 0.020714144837538355 -0.002283482837667691 0.003916397457125591
214 0.00015138548895965296 0.0021985023481207572 -0.002477183092232447
216 -0.011892286563424176 -0.011815358455696487 0.006861183245910316
218 -0.006328722547329677 0.046271018576841814 0.0008454622122424854
217 0.0040111465016567805 0.00033194424600316427 0.0008232930105494541
206 0.008505594247938652 0.009747649819486049 -0.0009670315542564225
215 -0.013316340673834165 -0.03398012675225695 -0.0010961873184373982
201 -0.012483351091493794 0.0010650261806424428 -0.006994525818047371
200 0.032553758028216175 -0.010695250607425696 0.019953215967395976
191 0.0042773976199060645 0.006005519261397338 -0.018212233742369965
185 0.0002904714830938841 0.005705716988485549 0.0037184932536550824
181 -0.003440371879277654 -0.01265507676719981 -0.003460083714692941
184 0.002502347544270717 -0.0024220671743590523 0.0013643070113324076
186 -0.01086506605132521 0.017145310929111084 -0.01226341113399169
175 0.003237935015761823 -0.00017644986045270533 -0.002951563854836696
171 0.002669278136718615 -0.011241332060121413 -0.013412947108902163
176 0.012565482745609468 -0.015625333198805977 0.0007437394761204212
178 0.014399698612020461 -0.005355615488274015 0.011530830947617308
173 -0.03434024114929079 -0.007489858951040344 -0.0013154574905119413
172 0.003301374461621063 -0.004707650228775499 0.004887781883375851
174 0.005240155743178859 0.009069103011409561 -0.01228184074158671
179 -0.021350490017555575 -0.008261716687302344 0.020717506802812514
177 0.005018206639376402 -0.002134289855129904 0.0025352441478802825
180 -0.008717631217098025 0.0063896288846104 0.022838187562249253
288 -0.040407816047240974 0.013227663715146032 -0.011865644902843203
275 -0.02047073776045548 -0.03220697163945343 0.02283602015406589
238 -0.015375504290130656 0.021066256499743703 0.007465735004988537
240 0.008162568717396795 -0.010619288827052323 -0.014943566806041857
239 -0.0007963857162556773 0.005346417711019988 -0.02817448388816268
234 -0.0062951264282291464 -0.0016949560985622188 0.01369439098885752
237 -0.004757237617661743 0.004018495076019269 0.0026082038502006242
235 0.008758027627074219 0.008290588772254885 -0.004192251017714565
236 -0.0006713340414574733 0.012338211033572332 -0.017332173732213553
245 -0.017048754036030674 -0.011843298838875083 -0.029022409469099373
276 0.025968421592423116 -0.009622328302313866 -0.0033595348986013764
280 -0.0033898569950164487 0.0008646659479407152 -0.006136921273202152
279 -0.0019326308536000512 -0.006326682236169562 0.00559489493989619
274 -0.004476302815675672 0.002549371832487505 0.007252806621495477
277 -0.0019231189116946782 0.0015922467031495202 -0.0024313899233638506
278 -0.01450319361663519 0.0023994805011953234 0.03984002917827646
227 0.025242497759013608 -0.008037863181659123 0.0009912621288588822
228 -0.002741978929334821 -0.0011679512029589996 -0.005504806929482327