ITEM: TIMESTEP
0
ITEM: NUMBER OF ATOMS
300
ITEM: BOX BOUNDS pp pp pp
0.0000000000000000e+00 6.6469189770000000e+01
0.0000000000000000e+00 6.6469189770000000e+01
0.0000000000000000e+00 6.6469189770000000e+01
ITEM: ATOMS id mol type x y z ix iy iz
280 1 3 54.8878 25.2152 18.3231 0 0 0
270 1 1 53.3927 24.3167 22.1331 0 0 0
271 1 4 52.9656 23.4268 21.4369 0 0 0
272 1 2 54.7517 24.8827 21.804 0 0 0
275 1 2 54.9036 25.6064 20.4502 0 0 0
277 1 2 54.5711 24.6828 19.2737 0 0 0
278 1 3 53.4541 24.6431 19.2286 0 0 0
279 1 3 55.0546 23.714 19.3232 0 0 0
274 1 3 55.4458 24.0523 21.773 0 0 0
291 1 2 54.1405 26.9135 20.3131 0 0 0
292 1 3 53.1894 26.7943 19.8307 0 0 0
293 1 3 53.8273 27.1976 21.3037 0 0 0
294 1 2 54.8978 28.0432 19.7226 0 0 0
295 1 3 54.6595 28.0296 18.6659 0 0 0
297 1 2 54.7148 29.3943 20.3822 0 0 0
298 1 3 55.2988 29.4896 21.2797 0 0 0
299 1 3 53.692 29.5341 20.6872 0 0 0
276 1 3 56.0067 25.8499 20.5053 0 0 0
296 1 3 55.9763 27.8357 19.6669 0 0 0
300 1 3 54.9756 30.2075 19.642 0 0 0
256 1 1 50.6457 25.5851 25.5991 0 0 0
265 1 3 51.1353 22.6518 25.3556 0 0 0
269 1 3 51.531 24.9327 22.6465 0 0 0
258 1 2 52.1633 25.1022 25.7804 0 0 0
261 1 2 52.6544 24.281 24.532 0 0 0
262 1 3 53.7219 24.2167 24.6584 0 0 0
263 1 2 52.0658 22.7985 24.6735 0 0 0
264 1 3 52.905 22.3427 25.1892 0 0 0
266 1 3 52.0133 22.259 23.781 0 0 0
267 1 2 52.5034 24.9363 23.1368 0 0 0
273 1 3 55.0857 25.5649 22.5941 0 0 0
257 1 4 50.372 26.3189 24.6474 0 0 0
268 1 3 52.7376 25.9961 23.2302 0 0 0
227 1 3 48.7672 32.874 25.8287 0 0 0
220 1 3 46.2501 33.3447 25.5698 0 0 0
249 1 2 47.8238 25.7317 28.2914 0 0 0
250 1 3 47.0065 25.7706 27.5989 0 0 0
252 1 3 47.7438 24.6147 28.6283 0 0 0
253 1 2 49.5846 25.1125 26.5759 0 0 0
254 1 3 49.9641 24.2066 27.0197 0 0 0
255 1 3 48.7868 24.9551 25.8824 0 0 0
259 1 3 52.3082 24.5219 26.6717 0 0 0
251 1 3 47.5573 26.4822 29.1581 0 0 0
239 1 2 49.1269 28.7405 29.2995 0 0 0
241 1 3 48.3652 28.7121 28.5117 0 0 0
242 1 1 50.3527 28.0866 28.7268 0 0 0
243 1 4 51.3737 28.69 28.3918 0 0 0
244 1 2 50.3154 26.5565 28.5003 0 0 0
245 1 3 50.2737 26.0813 29.522 0 0 0
246 1 3 51.2141 26.2655 28.1064 0 0 0
247 1 2 49.1028 26.1427 27.5818 0 0 0
248 1 3 48.8891 27.0178 26.9471 0 0 0
260 1 3 52.7102 26.0825 26.0116 0 0 0
203 1 3 40.5138 32.8901 29.3321 0 0 0
205 1 2 42.519 32.6179 29.2346 0 0 0
206 1 3 42.3122 32.2714 28.243 0 0 0
216 1 2 45.6905 32.6816 27.488 0 0 0
217 1 3 46.0562 32.3795 28.507 0 0 0
218 1 3 45.3912 31.7491 27.0091 0 0 0
226 1 3 47.8215 31.4864 26.3226 0 0 0
225 1 2 48.1107 32.4763 26.59 0 0 0
228 1 1 48.9398 32.3791 27.872 0 0 0
230 1 2 49.589 31.0035 28.1696 0 0 0
231 1 3 50.7039 31.158 28.1142 0 0 0
232 1 3 49.2785 30.3867 27.3262 0 0 0
164 1 3 32.0762 36.6693 28.4364 0 0 0
169 1 2 34.0072 36.5879 27.8295 0 0 0
170 1 3 33.9777 35.5872 27.4944 0 0 0
172 1 1 35.4886 36.8725 28.1001 0 0 0
174 1 2 36.5079 36.2987 27.1599 0 0 0
176 1 3 36.1324 35.2854 26.7132 0 0 0
177 1 2 37.849 35.8218 27.7022 0 0 0
178 1 3 38.2505 35.3886 26.8703 0 0 0
179 1 2 37.8088 34.5282 28.4868 0 0 0
180 1 3 37.2991 34.8815 29.3855 0 0 0
181 1 3 38.8438 34.1369 28.6817 0 0 0
182 1 3 37.1763 33.8053 28.1298 0 0 0
183 1 2 38.8019 36.8973 28.1849 0 0 0
185 1 3 39.7584 36.6552 27.8083 0 0 0
204 1 3 41.4982 34.3396 28.899 0 0 0
211 1 2 43.8223 33.4761 29.0645 0 0 0
212 1 3 43.6641 34.5332 29.3923 0 0 0
215 1 4 43.7811 34.0932 26.7758 0 0 0
214 1 1 44.4207 33.572 27.6826 0 0 0
219 1 2 46.7994 33.3408 26.6013 0 0 0
221 1 2 47.1752 34.8032 26.657 0 0 0
222 1 3 47.9834 35.0355 25.9895 0 0 0
223 1 3 47.4407 35.1238 27.7131 0 0 0
224 1 3 46.3444 35.3821 26.5336 0 0 0
229 1 4 49.0876 33.4021 28.5215 0 0 0
163 1 2 32.9344 37.0251 28.951 0 0 0
165 1 2 32.7819 38.4772 28.8996 0 0 0
167 1 3 32.4181 38.8621 27.9454 0 0 0
166 1 3 33.682 38.9747 29.1846 0 0 0
171 1 3 33.7184 37.2788 26.9757 0 0 0
173 1 4 35.8009 37.5974 29.0732 0 0 0
175 1 3 36.6257 37.0323 26.3729 0 0 0
184 1 3 38.6026 37.7875 27.6072 0 0 0
240 1 3 48.8398 28.1202 30.147 0 0 0
207 1 2 42.7793 31.307 30.1125 0 0 0
208 1 3 43.6108 30.8249 29.6353 0 0 0
209 1 3 41.9314 30.7414 30.3361 0 0 0
210 1 3 43.1343 31.5141 31.1514 0 0 0
213 1 3 44.5948 33.1285 29.7539 0 0 0
238 1 3 47.1598 30.5247 29.89 0 0 0
233 1 2 49.2842 30.2816 29.582 0 0 0
234 1 3 50.2038 30.4906 30.2018 0 0 0
235 1 2 48.099 30.7949 30.3868 0 0 0
236 1 3 48.1034 30.5131 31.418 0 0 0
237 1 3 48.0765 31.8581 30.4268 0 0 0
121 1 2 20.2757 36.4546 32.8785 0 0 0
122 1 3 19.4355 35.7454 32.9473 0 0 0
123 1 2 20.5353 36.6931 31.3972 0 0 0
124 1 3 21.004 35.839 30.9645 0 0 0
126 1 3 19.6532 36.8914 30.742 0 0 0
128 1 3 21.5894 34.8097 33.111 0 0 0
137 1 2 25.2471 34.3505 33.0281 0 0 0
139 1 3 25.253 34.5174 31.9569 0 0 0
138 1 3 26.1298 33.7372 33.2201 0 0 0
141 1 2 26.2355 36.7279 33.2339 0 0 0
144 1 1 27.7034 36.3935 33.1439 0 0 0
146 1 2 28.4807 36.6608 31.8775 0 0 0
147 1 3 27.7484 36.7979 31.0994 0 0 0
149 1 2 29.502 35.565 31.3789 0 0 0
151 1 2 28.9227 34.2184 31.4685 0 0 0
152 1 3 29.2846 33.44 30.6969 0 0 0
153 1 3 27.8143 34.0361 31.4055 0 0 0
154 1 3 29.2468 33.8696 32.4797 0 0 0
150 1 3 29.6373 35.7795 30.3323 0 0 0
155 1 2 30.9921 35.6185 31.8994 0 0 0
156 1 3 31.1526 35.7255 32.9291 0 0 0
157 1 3 31.4823 34.658 31.676 0 0 0
158 1 1 31.8795 36.6906 31.2589 0 0 0
160 1 2 33.0379 36.2781 30.3042 0 0 0
162 1 3 32.9633 35.2441 30.2306 0 0 0
161 1 3 33.9093 36.5951 30.826 0 0 0
188 1 2 40.0795 36.766 30.6002 0 0 0
191 1 2 39.554 35.8178 31.7263 0 0 0
192 1 3 38.5088 36.1436 31.8628 0 0 0
193 1 2 40.2027 36.155 33.0871 0 0 0
197 1 2 39.7378 34.3035 31.4973 0 0 0
198 1 3 39.5773 33.7347 32.4026 0 0 0
199 1 3 38.9633 33.8985 30.9466 0 0 0
189 1 3 40.7959 36.224 30.0102 0 0 0
195 1 3 41.278 35.8971 33.1232 0 0 0
200 1 1 41.1895 33.8947 31.0948 0 0 0
201 1 4 42.1436 34.0901 31.8412 0 0 0
202 1 2 41.384 33.5201 29.6155 0 0 0
117 1 4 20.6738 39.6044 32.4328 0 0 0
119 1 3 18.7149 37.889 33.2301 0 0 0
125 1 3 21.0825 37.595 31.2125 0 0 0
131 1 4 23.1408 37.1403 32.3387 0 0 0
142 1 3 25.8063 36.9885 32.3022 0 0 0
148 1 3 29.0067 37.6608 31.8852 0 0 0
159 1 4 31.7914 37.8126 31.7524 0 0 0
168 1 3 31.9904 38.846 29.6027 0 0 0
186 1 1 38.8428 37.2817 29.7063 0 0 0
187 1 4 38.1031 38.1976 30.11 0 0 0
190 1 3 40.5295 37.6664 31.004 0 0 0
287 1 2 27.3509 21.9475 36.1383 0 0 0
288 1 3 27.9006 21.0552 35.9804 0 0 0
290 1 3 26.3644 21.7354 36.555 0 0 0
284 1 2 28.2451 22.964 36.8702 0 0 0
285 1 3 28.0929 23.8796 36.271 0 0 0
286 1 3 29.3129 22.8449 36.7928 0 0 0
289 1 3 27.2433 22.3947 35.1619 0 0 0
127 1 2 21.5474 35.8138 33.5001 0 0 0
129 1 3 21.5141 35.8572 34.6635 0 0 0
130 1 1 22.9274 36.4137 33.3005 0 0 0
132 1 2 23.9942 36.1419 34.3891 0 0 0
134 1 3 23.6151 35.4512 35.1812 0 0 0
135 1 2 25.3427 35.6291 33.9013 0 0 0
136 1 3 25.8208 35.1881 34.7782 0 0 0
140 1 3 24.3128 33.7843 33.3139 0 0 0
145 1 4 28.3541 36.001 34.2023 0 0 0
194 1 3 39.6842 35.5657 33.8497 0 0 0
113 1 2 20.7813 39.8025 34.842 0 0 0
114 1 3 19.9855 39.5995 35.5359 0 0 0
116 1 1 20.4811 39.0293 33.5157 0 0 0
118 1 2 19.7048 37.7178 33.6244 0 0 0
120 1 3 19.5422 37.3759 34.6474 0 0 0
104 1 2 22.5016 40.4871 36.6447 0 0 0
107 1 2 22.2621 39.5185 35.4621 0 0 0
108 1 3 22.2462 38.4734 35.8197 0 0 0
109 1 2 23.3736 39.8049 34.4669 0 0 0
110 1 3 23.2527 39.303 33.5213 0 0 0
112 1 3 24.2699 39.385 35.019 0 0 0
133 1 3 24.1311 37.0569 34.9034 0 0 0
143 1 3 26.1976 37.6024 33.8504 0 0 0
196 1 3 40.1179 37.2218 33.4693 0 0 0
115 1 3 20.7605 40.8775 34.548 0 0 0
106 1 3 22.3848 41.4572 36.2462 0 0 0
111 1 3 23.3552 40.8871 34.1643 0 0 0
6 1 2 25.4333 25.2794 38.2432 0 0 0
7 1 3 25.1288 24.5161 37.5482 0 0 0
8 1 3 25.3626 24.973 39.2978 0 0 0
14 1 3 22.9852 24.887 37.8601 0 0 0
1 1 2 27.8565 24.6356 38.7873 0 0 0
2 1 3 28.8481 24.9684 38.6331 0 0 0
3 1 3 27.688 24.6106 39.858 0 0 0
4 1 1 26.8996 25.6705 38.1364 0 0 0
281 1 2 27.7617 23.1905 38.3262 0 0 0
282 1 3 28.2247 22.4982 38.962 0 0 0
283 1 3 26.7252 22.9222 38.3625 0 0 0
9 1 2 24.545 26.4516 38.088 0 0 0
10 1 3 24.6862 26.6506 37.0622 0 0 0
11 1 2 23.1378 25.9261 38.0985 0 0 0
12 1 3 22.4502 26.3122 37.4206 0 0 0
13 1 3 22.6692 26.0908 39.0891 0 0 0
15 1 2 24.6956 27.6188 39.1143 0 0 0
16 1 3 23.8782 27.6363 39.8455 0 0 0
17 1 3 25.4782 27.3394 39.8663 0 0 0
18 1 1 24.9827 28.9794 38.4074 0 0 0
19 1 4 24.4161 29.2972 37.3958 0 0 0
5 1 4 27.3437 26.3793 37.2493 0 0 0
39 1 2 19.7482 31.2791 39.7564 0 0 0
40 1 3 20.3919 31.3878 38.8091 0 0 0
41 1 3 19.6644 30.1894 39.8787 0 0 0
42 1 3 18.7675 31.7345 39.5087 0 0 0
23 1 2 25.3564 31.355 39.5354 0 0 0
25 1 2 24.983 32.2503 38.339 0 0 0
27 1 3 25.6847 32.0782 37.4481 0 0 0
28 1 3 24.0144 32.0309 37.9578 0 0 0
32 1 1 22.8738 30.9546 40.3877 0 0 0
33 1 4 22.6263 30.4543 39.3028 0 0 0
20 1 2 26.0142 29.9766 39.0486 0 0 0
21 1 3 26.4233 29.662 40.0058 0 0 0
22 1 3 26.887 30.1944 38.502 0 0 0
24 1 3 26.296 31.8144 39.9566 0 0 0
46 1 1 21.513 34.0605 39.8615 0 0 0
47 1 4 21.6401 33.547 38.7662 0 0 0
26 1 3 25.1055 33.2482 38.7249 0 0 0
48 1 2 22.334 35.2464 40.3275 0 0 0
51 1 2 23.39 35.7121 39.3122 0 0 0
52 1 3 23.9469 34.7905 39.4086 0 0 0
53 1 2 23.0109 36.0004 37.8271 0 0 0
54 1 3 23.8745 36.0587 37.2231 0 0 0
55 1 3 22.2917 35.289 37.3373 0 0 0
57 1 2 24.4495 36.7722 39.8045 0 0 0
61 1 4 26.098 35.0684 40.291 0 0 0
90 1 2 19.9727 39.7785 40.5291 0 0 0
92 1 3 19.3463 40.3024 39.8061 0 0 0
93 1 2 21.0267 38.8405 39.8082 0 0 0
94 1 3 21.6479 38.3255 40.5501 0 0 0
95 1 2 20.2325 37.8104 39.0752 0 0 0
96 1 3 19.4757 37.3954 39.7508 0 0 0
97 1 3 20.7845 36.9801 38.7809 0 0 0
98 1 3 19.5896 38.2325 38.3731 0 0 0
99 1 2 22.0705 39.6868 39.0216 0 0 0
102 1 1 21.4897 40.4008 37.7868 0 0 0
56 1 3 22.5364 36.9681 37.6594 0 0 0
58 1 3 24.9294 37.2494 38.9396 0 0 0
59 1 3 24.0219 37.4873 40.4303 0 0 0
100 1 3 22.992 39.0869 38.8266 0 0 0
101 1 3 22.4935 40.3535 39.6816 0 0 0
105 1 3 23.5385 40.4511 37.0236 0 0 0
103 1 4 20.5602 41.2037 37.8903 0 0 0
34 1 2 21.7752 31.2508 41.4471 0 0 0
36 1 3 21.4808 30.3349 41.9493 0 0 0
37 1 2 20.4487 31.9683 41.0179 0 0 0
38 1 3 19.7407 31.8029 41.8061 0 0 0
29 1 2 24.359 31.2966 40.7177 0 0 0
30 1 3 24.3247 32.3628 41.0967 0 0 0
31 1 3 24.7612 30.6728 41.4795 0 0 0
35 1 3 22.3303 31.9249 42.1824 0 0 0
43 1 2 20.5529 33.4537 40.8954 0 0 0
44 1 3 19.6074 33.9458 40.8365 0 0 0
45 1 3 20.8692 33.873 41.8872 0 0 0
49 1 3 21.6144 36.0666 40.6313 0 0 0
50 1 3 22.8329 34.9519 41.3039 0 0 0
60 1 1 25.5768 36.1246 40.6321 0 0 0
65 1 2 25.4965 36.6923 43.2386 0 0 0
70 1 3 25.144 34.5912 43.2328 0 0 0
72 1 3 23.3423 36.5331 42.7352 0 0 0
63 1 3 27.1233 36.8245 41.8322 0 0 0
67 1 2 25.8651 35.2462 43.598 0 0 0
69 1 3 26.7708 34.9535 43.1167 0 0 0
76 1 2 22.0662 38.8475 43.7388 0 0 0
78 1 3 21.412 38.2968 43.0472 0 0 0
79 1 2 21.6445 40.3611 43.6518 0 0 0
87 1 3 19.5569 39.8595 43.0483 0 0 0
91 1 3 19.3557 39.1792 41.1179 0 0 0
71 1 2 23.9447 36.9958 43.492 0 0 0
74 1 1 23.5345 38.4895 43.5198 0 0 0
75 1 4 24.3312 39.4201 43.2721 0 0 0
62 1 2 26.053 37.0114 41.8127 0 0 0
64 1 3 26.0962 38.0813 41.607 0 0 0
66 1 3 25.9149 37.3813 43.9309 0 0 0
85 1 2 20.2715 40.658 42.9051 0 0 0
86 1 3 19.8332 41.6565 43.2999 0 0 0
88 1 1 20.5049 40.8598 41.4254 0 0 0
89 1 4 21.151 41.7927 40.9988 0 0 0
80 1 3 22.4418 40.9681 43.1519 0 0 0
73 1 3 23.6264 36.6136 44.5024 0 0 0
68 1 3 25.8677 35.1493 44.6249 0 0 0
77 1 3 21.8223 38.5076 44.7569 0 0 0
84 1 3 21.0195 40.3146 45.8799 0 0 0
81 1 2 21.4864 40.9328 45.0778 0 0 0
82 1 3 20.7647 41.7414 44.9157 0 0 0
83 1 3 22.4556 41.2351 45.4219 0 0 0
ITEM: TIMESTEP
1000
ITEM: NUMBER OF ATOMS
300
ITEM: BOX BOUNDS pp pp pp
0.0000000000000000e+00 6.6469189770000000e+01
0.0000000000000000e+00 6.6469189770000000e+01
0.0000000000000000e+00 6.6469189770000000e+01
ITEM: ATOMS id mol type x y z ix iy iz
280 1 3 53.6248 25.0507 18.3179 0 0 0
270 1 1 52.8878 24.661 22.3052 0 0 0
271 1 4 52.8094 23.4211 22.1367 0 0 0
272 1 2 54.0693 25.3662 21.7616 0 0 0
275 1 2 53.9629 25.8415 20.365 0 0 0
277 1 2 53.7736 24.6665 19.3567 0 0 0
278 1 3 52.8008 24.1705 19.5656 0 0 0
279 1 3 54.6077 24.0437 19.3207 0 0 0
274 1 3 54.891 24.6634 21.8944 0 0 0
291 1 2 52.8891 26.8952 20.2247 0 0 0
292 1 3 52.4022 26.7891 19.223 0 0 0
293 1 3 52.0886 26.7556 20.9003 0 0 0
294 1 2 53.5004 28.3167 20.2229 0 0 0
295 1 3 54.1112 28.4552 19.3596 0 0 0
297 1 2 52.4201 29.4029 20.3424 0 0 0
298 1 3 51.901 29.0781 21.2517 0 0 0
299 1 3 51.6136 29.3138 19.6153 0 0 0
276 1 3 54.9246 26.2536 20.1318 0 0 0
296 1 3 54.1292 28.4433 21.1153 0 0 0
300 1 3 52.7913 30.4544 20.5101 0 0 0
256 1 1 50.3702 26.3742 25.8386 0 0 0
265 1 3 51.7156 22.7124 24.0899 0 0 0
269 1 3 51.068 25.4069 23.1308 0 0 0
258 1 2 51.7042 25.6345 25.9601 0 0 0
261 1 2 52.1931 24.7174 24.8153 0 0 0
262 1 3 53.2902 24.5548 25.0342 0 0 0
263 1 2 51.4339 23.3449 25.0191 0 0 0
264 1 3 50.3259 23.4548 24.8808 0 0 0
266 1 3 51.6205 22.7363 25.8517 0 0 0
267 1 2 52.1164 25.4001 23.3981 0 0 0
273 1 3 54.2848 26.2297 22.3728 0 0 0
257 1 4 50.1209 27.2129 25.028 0 0 0
268 1 3 52.471 26.4182 23.597 0 0 0
227 1 3 46.8882 32.5724 25.7694 0 0 0
220 1 3 45.2596 33.8597 26.9642 0 0 0
249 1 2 47.111 26.4045 27.6672 0 0 0
250 1 3 46.6131 26.3557 26.7605 0 0 0
252 1 3 47.1563 25.4265 28.0456 0 0 0
253 1 2 49.2536 25.7912 26.673 0 0 0
254 1 3 49.5546 24.9763 27.3043 0 0 0
255 1 3 48.5644 25.3378 26.0316 0 0 0
259 1 3 51.7151 25.0814 26.8838 0 0 0
251 1 3 46.5534 27.0195 28.3709 0 0 0
239 1 2 49.654 29.3293 29.9227 0 0 0
241 1 3 48.7751 28.9252 30.4109 0 0 0
242 1 1 50.1883 28.2084 28.9634 0 0 0
243 1 4 51.4034 28.1402 28.7518 0 0 0
244 1 2 49.215 26.9613 28.8767 0 0 0
245 1 3 48.5263 26.9604 29.7682 0 0 0
246 1 3 49.8257 26.123 29.1533 0 0 0
247 1 2 48.5629 26.8689 27.5352 0 0 0
248 1 3 48.51 27.8399 27.0178 0 0 0
260 1 3 52.4461 26.4778 25.8943 0 0 0
203 1 3 40.3812 31.9981 32.0616 0 0 0
205 1 2 42.0743 32.1322 30.5788 0 0 0
206 1 3 41.7579 31.3178 29.8673 0 0 0
216 1 2 45.3584 33.0203 28.9043 0 0 0
217 1 3 45.234 33.8924 29.5406 0 0 0
218 1 3 45.946 32.3495 29.461 0 0 0
226 1 3 46.2052 31.4192 26.7751 0 0 0
225 1 2 46.7543 32.3277 26.7995 0 0 0
228 1 1 48.1164 31.8642 27.3083 0 0 0
230 1 2 48.051 30.7509 28.3702 0 0 0
231 1 3 47.9656 29.8121 27.8558 0 0 0
232 1 3 47.1345 30.7792 28.929 0 0 0
164 1 3 32.3263 36.401 29.2087 0 0 0
169 1 2 34.4308 36.2427 28.9318 0 0 0
170 1 3 34.5383 35.4195 29.6261 0 0 0
172 1 1 35.6831 37.1163 28.8697 0 0 0
174 1 2 36.1915 37.7151 27.4931 0 0 0
176 1 3 35.2042 37.846 26.9287 0 0 0
177 1 2 37.1665 36.785 26.6794 0 0 0
178 1 3 37.1887 37.4192 25.694 0 0 0
179 1 2 36.6101 35.5058 26.2351 0 0 0
180 1 3 36.5322 34.7081 26.9931 0 0 0
181 1 3 37.1834 35.1148 25.3865 0 0 0
182 1 3 35.6597 35.7184 25.8955 0 0 0
183 1 2 38.6833 36.7586 27.1182 0 0 0
185 1 3 39.002 35.8276 26.8428 0 0 0
204 1 3 40.0331 32.8897 30.5857 0 0 0
211 1 2 42.8167 33.148 29.6195 0 0 0
212 1 3 42.0525 33.4827 28.849 0 0 0
215 1 4 43.6621 31.661 27.9193 0 0 0
214 1 1 43.936 32.5434 28.7075 0 0 0
219 1 2 46.0073 33.4759 27.6292 0 0 0
221 1 2 46.882 34.7068 27.9442 0 0 0
222 1 3 47.4371 34.8695 27.0599 0 0 0
223 1 3 47.667 34.6379 28.7782 0 0 0
224 1 3 46.4036 35.5718 28.2728 0 0 0
229 1 4 49.1475 32.4242 26.9697 0 0 0
163 1 2 33.1363 37.0417 29.2201 0 0 0
165 1 2 32.9312 38.1738 28.2019 0 0 0
167 1 3 32.9652 37.6033 27.2621 0 0 0
166 1 3 33.5947 38.9965 28.1377 0 0 0
171 1 3 34.3205 35.6859 27.9403 0 0 0
173 1 4 36.3855 37.2411 29.8901 0 0 0
175 1 3 36.6456 38.6897 27.5399 0 0 0
184 1 3 39.314 37.4892 26.6063 0 0 0
240 1 3 50.4393 29.3521 30.688 0 0 0
207 1 2 43.0691 31.3689 31.4797 0 0 0
208 1 3 43.5723 30.6168 30.8498 0 0 0
209 1 3 42.6336 30.8754 32.2924 0 0 0
210 1 3 43.8089 32.0085 32.0243 0 0 0
213 1 3 43.1902 33.9789 30.1566 0 0 0
238 1 3 48.1878 31.4778 31.1253 0 0 0
233 1 2 49.282 30.7379 29.3468 0 0 0
234 1 3 50.1278 31.2038 28.8542 0 0 0
235 1 2 49.0195 31.7173 30.4749 0 0 0
236 1 3 49.8044 31.7961 31.194 0 0 0
237 1 3 48.8524 32.666 30.0633 0 0 0
121 1 2 20.8826 36.2171 32.3334 0 0 0
122 1 3 19.9811 35.6397 32.5186 0 0 0
123 1 2 20.9923 36.2378 30.8089 0 0 0
124 1 3 20.9287 35.2324 30.4256 0 0 0
126 1 3 20.2595 36.8415 30.2508 0 0 0
128 1 3 21.7951 34.411 32.9746 0 0 0
137 1 2 26.0386 33.8366 33.4196 0 0 0
139 1 3 25.7468 33.7599 32.3761 0 0 0
138 1 3 27.0211 33.4376 33.4864 0 0 0
141 1 2 26.9181 36.0786 32.7596 0 0 0
144 1 1 28.3774 35.7213 32.9901 0 0 0
146 1 2 29.2254 35.5596 31.7941 0 0 0
147 1 3 28.7844 34.6218 31.352 0 0 0
149 1 2 30.7305 35.4878 31.9278 0 0 0
151 1 2 31.1274 34.1739 32.6618 0 0 0
152 1 3 32.215 34.1859 32.7143 0 0 0
153 1 3 30.7851 33.3434 32.0532 0 0 0
154 1 3 30.7911 34.0111 33.6519 0 0 0
150 1 3 31.0575 35.3388 30.8785 0 0 0
155 1 2 31.4066 36.8113 32.4819 0 0 0
156 1 3 30.8733 37.4669 33.2376 0 0 0
157 1 3 32.3891 36.4703 32.9874 0 0 0
158 1 1 31.7855 37.7192 31.3036 0 0 0
160 1 2 33.1945 37.5514 30.7012 0 0 0
162 1 3 33.7821 36.8967 31.3327 0 0 0
161 1 3 33.668 38.5032 30.6625 0 0 0
188 1 2 39.7746 35.9506 29.3236 0 0 0
191 1 2 39.9335 36.2474 30.7831 0 0 0
192 1 3 39.1086 36.8987 31.0717 0 0 0
193 1 2 41.2393 37.0766 31.0464 0 0 0
197 1 2 39.8232 35.0847 31.8547 0 0 0
198 1 3 39.761 35.6171 32.7795 0 0 0
199 1 3 38.8849 34.6636 31.6355 0 0 0
189 1 3 39.1008 35.1234 29.2502 0 0 0
195 1 3 42.1692 36.5322 30.7447 0 0 0
200 1 1 41.0184 34.0709 31.9964 0 0 0
201 1 4 42.0968 34.4662 32.3728 0 0 0
202 1 2 40.8068 32.7047 31.3458 0 0 0
117 1 4 22.1413 39.0377 32.1608 0 0 0
119 1 3 19.5825 37.9966 32.4511 0 0 0
125 1 3 21.9833 36.4865 30.4806 0 0 0
131 1 4 23.877 35.5457 31.6672 0 0 0
142 1 3 26.4841 35.8228 31.845 0 0 0
148 1 3 29.0129 36.4553 31.2048 0 0 0
159 1 4 31.0167 38.5218 30.8344 0 0 0
168 1 3 31.8946 38.5708 28.1542 0 0 0
186 1 1 39.1854 37.1466 28.517 0 0 0
187 1 4 39.2195 38.3437 28.8715 0 0 0
190 1 3 40.6782 35.6794 28.8215 0 0 0
287 1 2 29.6019 21.2847 36.8286 0 0 0
288 1 3 30.3406 21.8631 37.341 0 0 0
290 1 3 29.2196 20.4166 37.3844 0 0 0
284 1 2 28.4893 22.3203 36.5452 0 0 0
285 1 3 27.9893 22.0968 35.5607 0 0 0
286 1 3 29.0459 23.2535 36.4198 0 0 0
289 1 3 29.8929 21.0066 35.8513 0 0 0
127 1 2 21.9794 35.4709 33.1737 0 0 0
129 1 3 21.8358 35.684 34.2848 0 0 0
130 1 1 23.4565 35.6141 32.8086 0 0 0
132 1 2 24.5433 35.8503 33.9401 0 0 0
134 1 3 24.172 35.4701 34.8818 0 0 0
135 1 2 25.9756 35.3321 33.7816 0 0 0
136 1 3 26.4492 35.4283 34.7619 0 0 0
140 1 3 25.3104 33.2177 34.0316 0 0 0
145 1 4 28.8483 35.5285 34.167 0 0 0
194 1 3 41.3254 37.3777 32.0639 0 0 0
113 1 2 21.0432 39.8211 34.0857 0 0 0
114 1 3 20.0952 39.5432 34.501 0 0 0
116 1 1 21.4057 38.7196 33.1097 0 0 0
118 1 2 20.3956 37.5561 32.9872 0 0 0
120 1 3 19.9216 37.2545 33.9571 0 0 0
104 1 2 21.8104 41.0788 36.3119 0 0 0
107 1 2 22.1328 40.0864 35.1849 0 0 0
108 1 3 22.3509 39.1467 35.7073 0 0 0
109 1 2 23.397 40.5214 34.5819 0 0 0
110 1 3 23.8361 39.7801 33.9986 0 0 0
112 1 3 24.1942 40.8604 35.3234 0 0 0
133 1 3 24.6906 36.8955 34.1191 0 0 0
143 1 3 26.7426 37.1421 32.8035 0 0 0
196 1 3 41.2573 37.959 30.4152 0 0 0
115 1 3 20.6825 40.7284 33.5179 0 0 0
106 1 3 21.9079 42.0447 35.9217 0 0 0
111 1 3 23.3315 41.2881 33.7968 0 0 0
6 1 2 24.394 24.8391 37.8136 0 0 0
7 1 3 23.5315 24.4006 37.3249 0 0 0
8 1 3 24.2772 24.6468 38.9015 0 0 0
14 1 3 22.3005 26.5576 37.1043 0 0 0
1 1 2 26.8143 23.7865 38.1269 0 0 0
2 1 3 27.4972 24.6405 38.2218 0 0 0
3 1 3 26.5106 23.6368 39.1259 0 0 0
4 1 1 25.6807 24.1294 37.1569 0 0 0
281 1 2 27.5704 22.4747 37.8069 0 0 0
282 1 3 28.2646 22.4349 38.6774 0 0 0
283 1 3 26.9301 21.5988 37.856 0 0 0
9 1 2 24.4457 26.4388 37.6415 0 0 0
10 1 3 24.8432 26.6006 36.6016 0 0 0
11 1 2 23.0033 26.9309 37.8824 0 0 0
12 1 3 22.8414 27.9886 37.7748 0 0 0
13 1 3 22.4306 26.7365 38.8205 0 0 0
15 1 2 25.4415 27.1528 38.5918 0 0 0
16 1 3 25.2405 27.0415 39.6738 0 0 0
17 1 3 26.3852 26.5957 38.3906 0 0 0
18 1 1 25.7416 28.6159 38.1033 0 0 0
19 1 4 26.064 28.9475 36.9755 0 0 0
5 1 4 25.8225 24.0553 35.9465 0 0 0
39 1 2 19.9724 31.7335 39.7897 0 0 0
40 1 3 20.4251 31.702 38.7597 0 0 0
41 1 3 19.5473 30.7624 40.0121 0 0 0
42 1 3 19.1407 32.3818 39.8244 0 0 0
23 1 2 25.5819 31.1679 39.1352 0 0 0
25 1 2 25.4801 31.8915 37.7573 0 0 0
27 1 3 26.4607 31.8251 37.2509 0 0 0
28 1 3 24.8852 31.4645 37.0618 0 0 0
32 1 1 23.0828 30.9031 40.0635 0 0 0
33 1 4 22.7645 30.2139 39.1095 0 0 0
20 1 2 26.0561 29.7096 39.1033 0 0 0
21 1 3 25.9807 29.2437 40.1096 0 0 0
22 1 3 27.1013 29.7304 38.9775 0 0 0
24 1 3 26.4219 31.587 39.6189 0 0 0
46 1 1 21.8326 34.4871 39.7574 0 0 0
47 1 4 21.4916 34.2854 38.5927 0 0 0
26 1 3 25.2142 32.9375 37.8422 0 0 0
48 1 2 22.6176 35.7889 40.1612 0 0 0
51 1 2 24.0634 35.8294 39.7312 0 0 0
52 1 3 24.4461 34.8357 39.7719 0 0 0
53 1 2 24.1142 36.5103 38.3087 0 0 0
54 1 3 25.0793 36.6008 37.9131 0 0 0
55 1 3 23.5135 35.9413 37.5425 0 0 0
57 1 2 24.9555 36.5754 40.6801 0 0 0
61 1 4 24.4793 34.8719 42.3126 0 0 0
90 1 2 19.9695 40.899 40.288 0 0 0
92 1 3 20.157 41.8243 39.741 0 0 0
93 1 2 19.4819 39.8411 39.272 0 0 0
94 1 3 19.6637 38.9452 39.8811 0 0 0
95 1 2 18.001 39.8233 38.9785 0 0 0
96 1 3 17.3844 39.7288 39.8879 0 0 0
97 1 3 17.8482 38.8919 38.4467 0 0 0
98 1 3 17.6675 40.6911 38.4093 0 0 0
99 1 2 20.3256 39.6623 37.9678 0 0 0
102 1 1 20.4316 40.8361 37.0652 0 0 0
56 1 3 23.7819 37.5636 38.4209 0 0 0
58 1 3 25.9258 36.6453 40.2082 0 0 0
59 1 3 24.5114 37.5134 40.7315 0 0 0
100 1 3 20.1166 38.7507 37.3911 0 0 0
101 1 3 21.3143 39.3863 38.3306 0 0 0
105 1 3 22.5681 41.1157 37.1255 0 0 0
103 1 4 19.4393 41.4328 36.7075 0 0 0
34 1 2 22.0954 31.2705 41.1532 0 0 0
36 1 3 21.687 30.2884 41.3191 0 0 0
37 1 2 20.8808 32.2206 40.8954 0 0 0
38 1 3 20.2145 32.1345 41.8026 0 0 0
29 1 2 24.4719 31.5333 40.1708 0 0 0
30 1 3 24.2735 32.5848 39.9611 0 0 0
31 1 3 24.8597 31.5507 41.1976 0 0 0
35 1 3 22.6002 31.5221 42.1129 0 0 0
43 1 2 21.0605 33.8042 40.8885 0 0 0
44 1 3 20.1613 34.3514 40.9915 0 0 0
45 1 3 21.7529 34.0266 41.7109 0 0 0
49 1 3 22.1063 36.5668 39.6286 0 0 0
50 1 3 22.3834 36.0309 41.232 0 0 0
60 1 1 25.0974 35.9019 42.0251 0 0 0
65 1 2 25.8958 36.6472 44.5587 0 0 0
70 1 3 24.7789 34.7582 45.045 0 0 0
72 1 3 23.8893 37.1315 45.0428 0 0 0
63 1 3 27.0431 35.7148 42.86 0 0 0
67 1 2 25.6572 35.3808 45.3249 0 0 0
69 1 3 26.5045 34.6742 45.2257 0 0 0
76 1 2 23.2461 38.7413 43.2205 0 0 0
78 1 3 23.4565 38.685 42.2052 0 0 0
79 1 2 22.2521 39.8945 43.5439 0 0 0
87 1 3 20.786 38.8683 42.3444 0 0 0
91 1 3 19.1675 41.1962 40.9817 0 0 0
71 1 2 24.8372 37.611 45.0176 0 0 0
74 1 1 24.5617 38.7433 44.0054 0 0 0
75 1 4 25.451 39.5558 43.7405 0 0 0
62 1 2 26.2227 36.418 42.993 0 0 0
64 1 3 26.599 37.3773 42.576 0 0 0
66 1 3 26.8554 37.0994 44.8351 0 0 0
85 1 2 21.0529 39.8815 42.5357 0 0 0
86 1 3 20.1773 40.5079 42.9775 0 0 0
88 1 1 21.2903 40.5072 41.1018 0 0 0
89 1 4 22.3732 40.9258 40.7626 0 0 0
80 1 3 22.7275 40.8446 43.4683 0 0 0
73 1 3 25.0486 37.8654 46.073 0 0 0
68 1 3 25.6238 35.5573 46.3996 0 0 0
77 1 3 22.7895 37.7696 43.4166 0 0 0
84 1 3 22.5241 39.9194 45.7065 0 0 0
81 1 2 21.773 39.7742 44.9137 0 0 0
82 1 3 21.4643 38.7507 45.0635 0 0 0
83 1 3 20.9514 40.4475 45.0395 0 0 0
ITEM: TIMESTEP
2000
ITEM: NUMBER OF ATOMS
300
ITEM: BOX BOUNDS pp pp pp
0.0000000000000000e+00 6.6469189770000000e+01
0.0000000000000000e+00 6.6469189770000000e+01
0.0000000000000000e+00 6.6469189770000000e+01
ITEM: ATOMS id mol type x y z ix iy iz
280 1 3 53.066 25.822 18.5064 0 0 0
271 1 4 52.7988 23.8997 22.0785 0 0 0
272 1 2 53.492 26.1963 21.967 0 0 0
277 1 2 53.1127 25.5203 19.5503 0 0 0
278 1 3 52.1723 24.9568 19.7447 0 0 0
279 1 3 53.9707 24.9296 19.6046 0 0 0
274 1 3 54.5316 25.8584 21.9994 0 0 0
299 1 3 49.9566 28.4915 18.8557 0 0 0
275 1 2 53.2237 26.7093 20.5111 0 0 0
291 1 2 51.9658 27.5984 20.4696 0 0 0
292 1 3 51.0797 26.8997 20.5031 0 0 0
293 1 3 51.9174 28.141 21.3638 0 0 0
294 1 2 51.9958 28.6338 19.3919 0 0 0
295 1 3 52.4766 28.3234 18.4855 0 0 0
297 1 2 50.6374 29.2758 19.1199 0 0 0
298 1 3 50.2097 29.7755 19.9933 0 0 0
276 1 3 54.1178 27.2418 20.1943 0 0 0
296 1 3 52.5683 29.4872 19.7705 0 0 0
300 1 3 50.7283 30.0149 18.3331 0 0 0
265 1 3 52.467 23.083 25.1348 0 0 0
269 1 3 50.6636 25.0361 23.3227 0 0 0
263 1 2 51.6496 23.8037 25.4658 0 0 0
264 1 3 50.6611 23.4201 25.1757 0 0 0
270 1 1 52.6839 25.0594 22.5669 0 0 0
261 1 2 51.9135 25.3218 25.0737 0 0 0
262 1 3 52.9527 25.5052 25.1179 0 0 0
267 1 2 51.59 25.5053 23.5809 0 0 0
257 1 4 48.8971 25.9989 25.1701 0 0 0
273 1 3 53.4809 27.0312 22.649 0 0 0
268 1 3 51.2155 26.537 23.4382 0 0 0
227 1 3 44.6981 31.9341 26.8119 0 0 0
182 1 3 36.7876 34.1041 26.5006 0 0 0
181 1 3 38.4763 34.1942 26.1989 0 0 0
178 1 3 37.6999 35.9997 25.2077 0 0 0
252 1 3 46.6583 24.8846 29.2445 0 0 0
253 1 2 49.0485 25.4011 27.5588 0 0 0
254 1 3 49.74 25.275 28.3825 0 0 0
255 1 3 48.6771 24.4333 27.3601 0 0 0
258 1 2 51.0916 26.2185 26.0436 0 0 0
266 1 3 51.7325 23.714 26.4647 0 0 0
259 1 3 51.4991 26.1249 27.0346 0 0 0
249 1 2 46.5345 25.4927 28.3508 0 0 0
250 1 3 46.2037 24.8382 27.4743 0 0 0
251 1 3 45.6057 26.1201 28.5708 0 0 0
256 1 1 49.5885 25.8394 26.157 0 0 0
242 1 1 49.2944 28.0971 29.2583 0 0 0
243 1 4 50.4541 27.7731 29.0846 0 0 0
244 1 2 48.1769 27.0388 29.4038 0 0 0
246 1 3 48.4664 26.3655 30.2264 0 0 0
247 1 2 47.8574 26.3073 28.0798 0 0 0
248 1 3 47.5961 27.0742 27.3835 0 0 0
260 1 3 51.1778 27.3137 25.8927 0 0 0
215 1 4 45.3638 32.4435 30.9558 0 0 0
214 1 1 44.8182 33.4787 30.5289 0 0 0
216 1 2 45.4312 34.2277 29.361 0 0 0
218 1 3 46.5212 34.221 29.3857 0 0 0
226 1 3 44.5724 31.6002 28.465 0 0 0
225 1 2 45.1543 32.1554 27.7622 0 0 0
232 1 3 46.4569 30.5056 29.4875 0 0 0
228 1 1 46.6179 31.6238 27.6602 0 0 0
230 1 2 47.0833 30.5202 28.5973 0 0 0
231 1 3 46.8202 29.5729 28.1153 0 0 0
229 1 4 47.2143 31.9273 26.6444 0 0 0
233 1 2 48.6071 30.5967 29.0575 0 0 0
234 1 3 49.2839 30.7041 28.207 0 0 0
164 1 3 32.3671 37.8892 28.967 0 0 0
169 1 2 34.0315 37.025 28.0056 0 0 0
179 1 2 37.6513 34.6777 26.6819 0 0 0
180 1 3 37.8315 34.6992 27.7719 0 0 0
171 1 3 33.7782 37.5876 27.1026 0 0 0
177 1 2 37.5608 36.1633 26.2318 0 0 0
183 1 2 38.7742 37.0402 26.736 0 0 0
185 1 3 39.6282 36.4341 26.659 0 0 0
188 1 2 39.7945 36.9452 29.0815 0 0 0
189 1 3 40.0721 36.0141 28.685 0 0 0
212 1 3 43.0652 34.8453 30.6503 0 0 0
190 1 3 40.5573 37.7033 28.9464 0 0 0
220 1 3 43.8397 33.7135 27.9596 0 0 0
217 1 3 45.0803 35.3164 29.4046 0 0 0
219 1 2 44.9686 33.6299 27.9854 0 0 0
221 1 2 45.5296 34.5647 26.8654 0 0 0
222 1 3 45.3222 34.2779 25.819 0 0 0
223 1 3 46.6962 34.5707 26.9035 0 0 0
224 1 3 45.123 35.5209 27.1421 0 0 0
163 1 2 33.4348 37.7333 29.2125 0 0 0
165 1 2 34.1029 39.0737 29.4906 0 0 0
167 1 3 34.172 39.7692 28.5858 0 0 0
168 1 3 33.6423 39.718 30.2787 0 0 0
172 1 1 35.5229 36.7891 27.882 0 0 0
174 1 2 36.1882 36.8797 26.5079 0 0 0
176 1 3 35.5365 36.3148 25.8713 0 0 0
166 1 3 35.1421 38.9337 29.7849 0 0 0
175 1 3 36.0648 37.9598 26.1517 0 0 0
184 1 3 38.9843 37.8087 26.0009 0 0 0
186 1 1 38.7022 37.507 28.1444 0 0 0
187 1 4 38.1549 38.5348 28.4113 0 0 0
239 1 2 48.9744 29.3865 29.957 0 0 0
241 1 3 48.191 29.2492 30.7831 0 0 0
245 1 3 47.2232 27.4759 29.719 0 0 0
240 1 3 49.9799 29.58 30.4397 0 0 0
203 1 3 40.3113 32.7423 30.5772 0 0 0
204 1 3 41.1772 33.9337 29.6504 0 0 0
205 1 2 42.3763 32.9557 31.1372 0 0 0
206 1 3 42.5855 32.3047 30.3184 0 0 0
211 1 2 43.5088 33.9957 31.2366 0 0 0
207 1 2 42.1855 32.0494 32.4045 0 0 0
208 1 3 43.0635 31.3798 32.6332 0 0 0
209 1 3 41.3398 31.3774 32.3443 0 0 0
210 1 3 41.9094 32.7353 33.2373 0 0 0
202 1 2 41.0098 33.5592 30.6807 0 0 0
238 1 3 48.3041 31.9209 30.7439 0 0 0
235 1 2 48.8157 31.9451 29.7594 0 0 0
236 1 3 49.8823 31.963 30.0619 0 0 0
237 1 3 48.7052 32.8586 29.1602 0 0 0
121 1 2 21.8533 35.9922 32.3015 0 0 0
122 1 3 21.1701 35.1773 32.3975 0 0 0
123 1 2 21.934 36.2566 30.776 0 0 0
124 1 3 22.1792 35.3349 30.2017 0 0 0
126 1 3 20.985 36.5392 30.3102 0 0 0
128 1 3 23.2413 34.2977 32.6554 0 0 0
125 1 3 22.7082 37.0329 30.5431 0 0 0
127 1 2 23.2587 35.4267 32.8173 0 0 0
139 1 3 26.3375 33.6673 32.64 0 0 0
131 1 4 25.0254 35.259 31.2375 0 0 0
130 1 1 24.5469 35.8955 32.138 0 0 0
141 1 2 28.015 36.0954 32.6008 0 0 0
144 1 1 29.3674 35.7496 33.3668 0 0 0
146 1 2 30.1942 34.6747 32.7695 0 0 0
147 1 3 29.7255 33.6793 33.1166 0 0 0
142 1 3 27.914 35.5869 31.6886 0 0 0
148 1 3 29.9032 34.7507 31.7624 0 0 0
149 1 2 31.7452 34.7156 32.9055 0 0 0
151 1 2 32.381 33.9494 34.1446 0 0 0
152 1 3 33.3705 33.5283 33.9871 0 0 0
153 1 3 31.781 33.0412 34.3929 0 0 0
150 1 3 32.0837 34.197 32.0206 0 0 0
155 1 2 32.4398 36.0827 32.788 0 0 0
157 1 3 33.5403 35.8763 32.891 0 0 0
170 1 3 33.5369 36.0482 27.8663 0 0 0
191 1 2 39.3706 36.8664 30.5769 0 0 0
192 1 3 38.4082 37.3276 30.7255 0 0 0
197 1 2 39.1676 35.3689 30.9727 0 0 0
198 1 3 38.4264 35.2326 31.7302 0 0 0
199 1 3 38.7827 34.6794 30.2058 0 0 0
213 1 3 43.757 34.3611 32.2402 0 0 0
195 1 3 41.3386 37.2085 31.5522 0 0 0
200 1 1 40.3797 34.6654 31.5744 0 0 0
201 1 4 40.7048 34.8077 32.7427 0 0 0
117 1 4 23.2128 38.6385 32.5876 0 0 0
119 1 3 20.3226 37.6092 32.6137 0 0 0
116 1 1 22.175 38.454 33.2911 0 0 0
118 1 2 21.2098 37.2316 33.1018 0 0 0
143 1 3 27.9796 37.1373 32.3823 0 0 0
156 1 3 31.9752 36.8723 33.4578 0 0 0
158 1 1 32.2978 36.7134 31.3257 0 0 0
160 1 2 33.5709 36.7124 30.4747 0 0 0
159 1 4 31.2361 37.2223 30.9587 0 0 0
173 1 4 36.1739 36.3474 28.8229 0 0 0
162 1 3 33.6519 35.6584 30.0935 0 0 0
161 1 3 34.4517 37.0442 31.0444 0 0 0
193 1 2 40.3045 37.6226 31.4762 0 0 0
194 1 3 39.9235 37.6636 32.4639 0 0 0
196 1 3 40.309 38.597 31.0755 0 0 0
285 1 3 27.5113 21.5857 36.1622 0 0 0
287 1 2 28.6244 20.6398 37.8457 0 0 0
289 1 3 29.5041 20.364 37.3532 0 0 0
5 1 4 25.3869 23.7403 35.6278 0 0 0
284 1 2 27.9278 21.8613 37.1333 0 0 0
286 1 3 28.6195 22.6895 37.1219 0 0 0
10 1 3 24.5329 26.2607 35.8704 0 0 0
129 1 3 23.3823 35.5238 33.9101 0 0 0
132 1 2 25.4987 36.6414 33.0681 0 0 0
134 1 3 24.9991 36.8841 33.9807 0 0 0
140 1 3 25.8035 33.9005 34.2866 0 0 0
133 1 3 25.7768 37.5316 32.5333 0 0 0
137 1 2 26.6132 34.1789 33.5399 0 0 0
138 1 3 27.4707 33.7003 33.8743 0 0 0
135 1 2 26.7948 35.7541 33.4264 0 0 0
136 1 3 27.0043 36.0057 34.454 0 0 0
145 1 4 29.575 36.3226 34.4798 0 0 0
154 1 3 32.3922 34.6706 34.9935 0 0 0
113 1 2 21.6273 39.5261 34.2882 0 0 0